<LesHouchesEvents version="1.0">
<!--
file generated with POWHEG-BOX version 1.0
Input file powheg.input contained:
numevts 1000          ! number of events to be generated
ih1  1               ! hadron 1 (1 for protons, -1 for antiprotons)
ih2  1               ! hadron 2 (1 for protons, -1 for antiprotons)
ebeam1 2510d0        ! energy of beam 1
ebeam2 2510d0        ! energy of beam 2
 
bornktmin 30d0       ! (default 0d0) Generation cut: minimum kt in underlying Born
#bornsuppfact 100d0  ! (default 0d0) Mass parameter for Born suppression factor.
                     ! If < 0 suppfact = 1.
 
 
! To be set only if using internal (mlm) pdfs
! 131 cteq6m
ndns1 131            ! pdf set for hadron 1 (mlm numbering)
ndns2 131            ! pdf set for hadron 2 (mlm numbering)
 
! To be set only if using LHA pdfs
! 10050 cteq6m
! lhans1  10050      ! pdf set for hadron 1 (LHA numbering)
! lhans2  10050      ! pdf set for hadron 2 (LHA numbering)	
 
! To be set only if using different pdf sets for the two incoming hadrons
#QCDLambda5  0.25    ! for not equal pdf sets
 
#renscfact  1d0      ! (default 1d0) ren scale factor: muren  = muref * renscfact
#facscfact  1d0      ! (default 1d0) fac scale factor: mufact = muref * facscfact
 
! Parameters to allow or not the use of stored data
use-old-grid    1    ! If 1 use old grid if file pwggrids.dat is present (<> 1 regenerate)
use-old-ubound  1    ! If 1 use norm of upper bounding function stored
                     ! in pwgubound.dat, if present; <> 1 regenerate
 
! A typical call uses 1/1400 seconds (1400 calls per second)
ncall1 20000         ! No. calls for the construction of the importance sampling grid
itmx1 5              ! No. iterations for grid: total 100000 calls ~ 70 seconds
ncall2 20000         ! No. calls for the computation of the upper bounding
                     ! envelope for the generation of radiation
itmx2 5              ! No. iterations for the above
 
! Notice: the total number of calls is ncall2*itmx2*foldcsi*foldy*foldphi
! these folding numbers yield a negative fraction of 0.5% with bornktmin=10 GeV.
! With these settings: ncall2*itmx2*foldcsi*foldy*foldphi=5M, 60 minutes
foldcsi 5            ! No. folds on csi integration
foldy   5            ! No. folds on  y  integration
foldphi 2            ! No. folds on phi integration
 
nubound 500000       ! No. calls to set up the upper bounding norms for radiation.
                     ! This is performed using only the Born cross section (fast)
 
! OPTIONAL PARAMETERS
 
withnegweights 1     ! (default 0). If 1 use negative weights.
#bornonly 1          ! (default 0). If 1 compute underlying Born using LO
                     ! cross section only.
 
#ptsqmin    0.8      ! (default 0.8 GeV) minimum pt for generation of radiation
#charmthr   1.5      ! (default 1.5 GeV) charm treshold for gluon splitting
#bottomthr  5.0      ! (default 5.0 GeV) bottom treshold for gluon splitting
#testplots  1        ! (default 0, do not) do NLO and PWHG distributions
#charmthrpdf  1.5    ! (default 1.5 GeV) pdf charm treshold
#bottomthrpdf 5.0    ! (default 5.0 GeV) pdf bottom treshold
 
#xupbound 2d0        ! increase upper bound for radiation generation
 
#iseed    5421       ! Start the random number generator with seed iseed
#rand1     0         ! skipping  rand2*100000000+rand1 numbers (see RM48
#rand2     0         ! short writeup in CERNLIB).
#manyseeds 1         ! Used to perform multiple runs with different random
                     ! seeds in the same directory.
                     ! If set to 1, the program asks for an integer j;
                     ! The file pwgseeds.dat at line j is read, and the
                     ! integer at line j is used to initialize the random
                     ! sequence for the generation of the event.
                     ! The event file is called pwgevents-'j'.lhe
 
doublefsr 1          ! Default 0; if 1 use new mechanism to generate regions
                     ! such that the emitted harder than the
                     ! emitter in FSR is suppressed. If doublefsr=0 this is
                     ! only the case for emitted gluons (old behaviour). If
                     ! 1 it is also applied to emitted quarks.
                     ! If set, it strongly reduces spikes on showered output.
 
 
 
#par_diexp 4         ! default is 2. With 4 there is a stronger separation
#par_dijexp 4        ! of regions, it may help to reduce spikes when generating
#par_2gsupp 4        ! weighted events.
End of powheg.input content
PDF package: mlm
 Random number generator initialized with:     54217137             0             0
-->
<init>
     2212     2212  2.51000E+03  2.51000E+03     -1     -1     -1     -1     -4      1
  2.02371E+08  3.79738E+05  1.00000E+00  10001
</init>
<event>
      5  10001  2.02673E+08  2.77826E+01 -1.00000E+00  1.55357E-01
       2    -1     0     0   513     0  0.000000000E+00  0.000000000E+00  1.062974831E+02  1.062974831E+02  0.000000000E+00  0.00000E+00  9.000E+00
      21    -1     0     0   511   512  0.000000000E+00  0.000000000E+00 -2.768901225E+01  2.768901225E+01  0.000000000E+00  0.00000E+00  9.000E+00
      21     1     1     2   513   512  7.337503452E+00  3.550994282E+01 -7.545400936E+00  3.703684748E+01  8.513246093E-07  0.00000E+00  9.000E+00
      21     1     1     2   511   514  9.239125486E+00 -1.861352874E+01  3.936920059E+01  4.451695011E+01  6.743495762E-07  0.00000E+00  9.000E+00
       2     1     1     2   514     0 -1.657662894E+01 -1.689641408E+01  4.678467116E+01  5.243269773E+01  3.300000131E-01  0.00000E+00  9.000E+00
</event>
<event>
      5  10001  2.02673E+08  2.07989E+01 -1.00000E+00  1.64937E-01
      21    -1     0     0   515   512  0.000000000E+00  0.000000000E+00  6.945903693E+02  6.945903693E+02  0.000000000E+00  0.00000E+00  9.000E+00
      21    -1     0     0   517   516  0.000000000E+00  0.000000000E+00 -6.163697696E+00  6.163697696E+00  0.000000000E+00  0.00000E+00  9.000E+00
      21     1     1     2   515   516 -5.093296860E+01 -3.650471080E+00  2.079976621E+02  2.141740429E+02  3.814697266E-06  0.00000E+00  9.000E+00
      21     1     1     2   517   511  4.603479274E+01  2.386438074E+01  2.565966349E+02  2.617833911E+02  0.000000000E+00  0.00000E+00  9.000E+00
      21     1     1     2   511   512  4.898175863E+00 -2.021390966E+01  2.238323746E+02  2.247966330E+02  4.672030912E-06  0.00000E+00  9.000E+00
</event>
<event>
      5  10001  2.02673E+08  1.69648E+01 -1.00000E+00  1.72446E-01
      21    -1     0     0   513   516  0.000000000E+00  0.000000000E+00  7.078964460E+02  7.078964460E+02  0.000000000E+00  0.00000E+00  9.000E+00
      21    -1     0     0   514   512  0.000000000E+00  0.000000000E+00 -3.153264974E+01  3.153264974E+01  0.000000000E+00  0.00000E+00  9.000E+00
      21     1     1     2   513   512 -2.165392791E+01 -3.255667085E+01 -1.709404671E+01  4.267359656E+01  2.665600750E-06  0.00000E+00  9.000E+00
      21     1     1     2   515   516  1.461721215E+01  2.126947719E+01  6.632150124E+02  6.637169625E+02  0.000000000E+00  0.00000E+00  9.000E+00
      21     1     1     2   514   515  7.036715754E+00  1.128719366E+01  3.024283056E+01  3.303853674E+01  0.000000000E+00  0.00000E+00  9.000E+00
</event>
<event>
      5  10001  2.02673E+08  2.01845E+01 -1.00000E+00  1.65999E-01
       2    -1     0     0   513     0  0.000000000E+00  0.000000000E+00  1.798940122E+02  1.798940122E+02  0.000000000E+00  0.00000E+00  9.000E+00
      21    -1     0     0   511   515  0.000000000E+00  0.000000000E+00 -2.311324550E+02  2.311324550E+02  0.000000000E+00  0.00000E+00  9.000E+00
      21     1     1     2   512   515  3.973856609E+01 -1.271213125E+01 -2.240280021E+02  2.278800071E+02  0.000000000E+00  0.00000E+00  9.000E+00
       2     1     1     2   511     0 -2.217743297E+01  2.266305669E+01  1.470828656E+02  1.504623904E+02  3.300000131E-01  0.00000E+00  9.000E+00
      21     1     1     2   513   512 -1.756113312E+01 -9.950925440E+00  2.570669367E+01  3.268406971E+01  3.371747881E-07  0.00000E+00  9.000E+00
</event>
<event>
      5  10001  2.02673E+08  2.77707E+01 -1.00000E+00  1.55370E-01
      21    -1     0     0   512   514  0.000000000E+00  0.000000000E+00  1.912596622E+01  1.912596622E+01  0.000000000E+00  0.00000E+00  9.000E+00
      -3    -1     0     0     0   512  0.000000000E+00  0.000000000E+00 -1.860011593E+02  1.860011593E+02  0.000000000E+00  0.00000E+00  9.000E+00
      -3     1     1     2     0   511 -1.595712685E+01 -1.204392163E+01 -9.526574291E+01  9.734216825E+01  5.000000000E-01  0.00000E+00  9.000E+00
      21     1     1     2   513   514  1.342442457E+01  3.969858580E+01 -1.461041943E+01  4.438082069E+01  7.539457465E-07  0.00000E+00  9.000E+00
      21     1     1     2   511   513  2.532702281E+00 -2.765466417E+01 -5.699903073E+01  6.340413658E+01  1.348699152E-06  0.00000E+00  9.000E+00
</event>
<event>
      5  10001  2.02673E+08  1.38620E+01 -1.00000E+00  1.80624E-01
      21    -1     0     0   516   512  0.000000000E+00  0.000000000E+00  5.410944738E+01  5.410944738E+01  0.000000000E+00  0.00000E+00  9.000E+00
      -3    -1     0     0     0   515  0.000000000E+00  0.000000000E+00 -5.365969353E+01  5.365969353E+01  0.000000000E+00  0.00000E+00  9.000E+00
      -3     1     1     2     0   513  3.293514103E+01 -2.353829750E+01 -1.560511148E+01  4.338829875E+01  5.000000000E-01  0.00000E+00  9.000E+00
      21     1     1     2   516   515 -4.524852275E+01  1.717225875E+01  1.104641878E+01  4.964210561E+01  6.637292341E-07  0.00000E+00  9.000E+00
      21     1     1     2   513   512  1.231338171E+01  6.366038745E+00  5.008446544E+00  1.473873656E+01  3.039252468E-07  0.00000E+00  9.000E+00
</event>
<event>
      5  10001  2.02673E+08  5.62489E+00 -1.00000E+00  2.29834E-01
      21    -1     0     0   511   515  0.000000000E+00  0.000000000E+00  2.395562792E+02  2.395562792E+02  0.000000000E+00  0.00000E+00  9.000E+00
      21    -1     0     0   512   511  0.000000000E+00  0.000000000E+00 -6.146916641E+00  6.146916641E+00  0.000000000E+00  0.00000E+00  9.000E+00
      21     1     1     2   514   515 -1.280967424E+01 -2.780512957E+01  1.874840600E+02  1.899670649E+02  0.000000000E+00  0.00000E+00  9.000E+00
      21     1     1     2   516   514  6.935809631E+00  2.090328917E+01  3.671831919E+01  4.281691159E+01  6.743495762E-07  0.00000E+00  9.000E+00
      21     1     1     2   512   516  5.873864606E+00  6.901840395E+00  9.206983314E+00  1.291921933E+01  2.064765462E-07  0.00000E+00  9.000E+00
</event>
<event>
      5  10001  2.02673E+08  1.11084E+01 -1.00000E+00  1.90568E-01
      21    -1     0     0   512   514  0.000000000E+00  0.000000000E+00  2.352314686E+02  2.352314686E+02  0.000000000E+00  0.00000E+00  9.000E+00
      -2    -1     0     0     0   511  0.000000000E+00  0.000000000E+00 -1.238659367E+01  1.238659367E+01  0.000000000E+00  0.00000E+00  9.000E+00
      -2     1     1     2     0   514 -3.959982735E+01 -4.373824087E+00  9.632373718E+01  1.042384186E+02  3.300000131E-01  0.00000E+00  9.000E+00
      21     1     1     2   512   513  3.378310111E+01  1.383744761E+01  1.271169165E+02  1.322553717E+02  2.336015456E-06  0.00000E+00  9.000E+00
      21     1     1     2   513   511  5.816726235E+00 -9.463623527E+00 -5.957788020E-01  1.112427196E+01  1.957107415E-07  0.00000E+00  9.000E+00
</event>
<event>
      5  10001  2.02673E+08  6.47800E+00 -1.00000E+00  2.20348E-01
      21    -1     0     0   515   512  0.000000000E+00  0.000000000E+00  2.889552562E+01  2.889552562E+01  0.000000000E+00  0.00000E+00  9.000E+00
      21    -1     0     0   516   515  0.000000000E+00  0.000000000E+00 -2.883344237E+02  2.883344237E+02  0.000000000E+00  0.00000E+00  9.000E+00
      21     1     1     2   511   513  3.628968795E+01 -5.638205059E+00 -9.043336440E+01  9.760596398E+01  1.651812370E-06  0.00000E+00  9.000E+00
      21     1     1     2   516   511 -2.993950174E+01  6.918656717E+00 -1.926617295E+02  1.950968570E+02  3.814697266E-06  0.00000E+00  9.000E+00
      21     1     1     2   513   512 -6.350186211E+00 -1.280451658E+00  2.365619588E+01  2.452712834E+01  7.539457465E-07  0.00000E+00  9.000E+00
</event>
<event>
      5  10001  2.02673E+08  5.49933E+01 -1.00000E+00  1.36729E-01
      21    -1     0     0   514   516  0.000000000E+00  0.000000000E+00  3.539271287E+01  3.539271287E+01  0.000000000E+00  0.00000E+00  9.000E+00
      21    -1     0     0   513   512  0.000000000E+00  0.000000000E+00 -1.641313246E+02  1.641313246E+02  0.000000000E+00  0.00000E+00  9.000E+00
      21     1     1     2   514   512  1.319782150E+01  4.630000067E+01  2.942670588E+00  4.823413589E+01  5.331201500E-07  0.00000E+00  9.000E+00
      21     1     1     2   513   511  2.015119885E+01 -3.283291432E+01 -6.790695453E+01  7.807320636E+01  0.000000000E+00  0.00000E+00  9.000E+00
      21     1     1     2   511   516 -3.334902035E+01 -1.346708635E+01 -6.377432776E+01  7.321669519E+01  9.536743164E-07  0.00000E+00  9.000E+00
</event>
<event>
      5  10001  2.02673E+08  1.66408E+01 -1.00000E+00  1.73194E-01
      21    -1     0     0   512   516  0.000000000E+00  0.000000000E+00  8.933790589E+01  8.933790589E+01  0.000000000E+00  0.00000E+00  9.000E+00
      -1    -1     0     0     0   515  0.000000000E+00  0.000000000E+00 -7.527948241E+01  7.527948241E+01  0.000000000E+00  0.00000E+00  9.000E+00
      -1     1     1     2     0   511 -3.372584783E+01 -8.118424064E-01 -5.181760114E+01  6.183255282E+01  3.300000131E-01  0.00000E+00  9.000E+00
      21     1     1     2   511   516  3.725219842E+01 -1.545095804E+01  6.164359573E+00  4.079776612E+01  7.633118912E-07  0.00000E+00  9.000E+00
      21     1     1     2   512   515 -3.526350588E+00  1.626280044E+01  5.971166504E+01  6.198706936E+01  9.536743164E-07  0.00000E+00  9.000E+00
</event>
<event>
      5  10001  2.02673E+08  1.81412E+01 -1.00000E+00  1.69899E-01
       2    -1     0     0   511     0  0.000000000E+00  0.000000000E+00  9.023398468E+01  9.023398468E+01  0.000000000E+00  0.00000E+00  9.000E+00
      21    -1     0     0   514   513  0.000000000E+00  0.000000000E+00 -9.551586876E+01  9.551586876E+01  0.000000000E+00  0.00000E+00  9.000E+00
      21     1     1     2   511   513 -4.928595158E+01 -2.077777561E+01  3.610583155E+01  6.453256584E+01  0.000000000E+00  0.00000E+00  9.000E+00
       2     1     1     2   512     0  3.730815785E+01  3.440245220E+01  2.197914399E+01  5.530478307E+01  3.300000131E-01  0.00000E+00  9.000E+00
      21     1     1     2   514   512  1.197779373E+01 -1.362467659E+01 -6.336685963E+01  6.591250453E+01  9.536743164E-07  0.00000E+00  9.000E+00
</event>
<event>
      5  10001  2.02673E+08  4.40106E+01 -1.00000E+00  1.42282E-01
      21    -1     0     0   515   512  0.000000000E+00  0.000000000E+00  1.376120091E+02  1.376120091E+02  0.000000000E+00  0.00000E+00  9.000E+00
      21    -1     0     0   514   515  0.000000000E+00  0.000000000E+00 -5.208881343E+01  5.208881343E+01  0.000000000E+00  0.00000E+00  9.000E+00
      21     1     1     2   514   516 -2.907765880E+01  8.661328910E+00 -4.475927061E+01  5.407329438E+01  1.261592536E-06  0.00000E+00  9.000E+00
      21     1     1     2   511   512  9.984709281E+00 -8.716588093E+00  2.207399396E+01  2.574751516E+01  4.129530925E-07  0.00000E+00  9.000E+00
      21     1     1     2   516   511  1.909294952E+01  5.525918308E-02  1.082084723E+02  1.098800130E+02  1.348699152E-06  0.00000E+00  9.000E+00
</event>
<event>
      5  10001  2.02673E+08  3.01834E+01 -1.00000E+00  1.52821E-01
       5    -1     0     0   513     0  0.000000000E+00  0.000000000E+00  1.295180403E+02  1.295180403E+02  0.000000000E+00  0.00000E+00  9.000E+00
      -1    -1     0     0     0   513  0.000000000E+00  0.000000000E+00 -2.582778592E+01  2.582778592E+01  0.000000000E+00  0.00000E+00  9.000E+00
      -1     1     1     2     0   512 -1.454480265E+01  3.128920037E+01  2.485055532E+00  3.459551625E+01  3.300000131E-01  0.00000E+00  9.000E+00
       5     1     1     2   514     0  5.496618430E+00 -3.959146175E+01  1.007121435E+02  1.084604652E+02  4.800000191E+00  0.00000E+00  9.000E+00
      21     1     1     2   512   514  9.048184220E+00  8.302261380E+00  4.930553646E-01  1.228984480E+01  3.866772373E-07  0.00000E+00  9.000E+00
</event>
<event>
      5  10001  2.02673E+08  5.75411E+01 -1.00000E+00  1.35654E-01
      -4    -1     0     0     0   511  0.000000000E+00  0.000000000E+00  8.098368259E+01  8.098368259E+01  0.000000000E+00  0.00000E+00  9.000E+00
      21    -1     0     0   511   513  0.000000000E+00  0.000000000E+00 -1.405766586E+02  1.405766586E+02  0.000000000E+00  0.00000E+00  9.000E+00
      -4     1     1     2     0   515  3.097959435E+01 -3.106603422E+01  6.727795958E+01  8.033310397E+01  1.500000000E+00  0.00000E+00  9.000E+00
      -5     1     1     2     0   513 -2.391411523E+01  2.250577702E+01 -3.378418067E+01  4.735827037E+01  4.800000191E+00  0.00000E+00  9.000E+00
       5     1     1     2   515     0 -7.065479121E+00  8.560257193E+00 -9.308675493E+01  9.386896688E+01  4.800000191E+00  0.00000E+00  9.000E+00
</event>
<event>
      5  10001  2.02673E+08  1.23003E+01 -1.00000E+00  1.85854E-01
      21    -1     0     0   512   515  0.000000000E+00  0.000000000E+00  1.074746122E+01  1.074746122E+01  0.000000000E+00  0.00000E+00  9.000E+00
      21    -1     0     0   511   514  0.000000000E+00  0.000000000E+00 -4.379621342E+02  4.379621342E+02  0.000000000E+00  0.00000E+00  9.000E+00
      21     1     1     2   512   514 -1.515459134E+01 -3.066909755E+01 -1.932743053E+01  3.929128089E+01  1.066240300E-06  0.00000E+00  9.000E+00
      -4     1     1     2     0   515  4.555331987E+00  6.249984771E+00 -1.356429647E+02  1.358715468E+02  1.500000000E+00  0.00000E+00  9.000E+00
       4     1     1     2   511     0  1.059925936E+01  2.441911278E+01 -2.722442778E+02  2.735467678E+02  1.500000000E+00  0.00000E+00  9.000E+00
</event>
<event>
      5  10001  2.02673E+08  1.89163E+01 -1.00000E+00  1.68348E-01
       2    -1     0     0   512     0  0.000000000E+00  0.000000000E+00  9.010713773E+01  9.010713773E+01  0.000000000E+00  0.00000E+00  9.000E+00
       4    -1     0     0   511     0  0.000000000E+00  0.000000000E+00 -4.644371033E+01  4.644371033E+01  0.000000000E+00  0.00000E+00  9.000E+00
       2     1     1     2   513     0 -1.795249059E+01 -1.167382263E+01  7.212049077E+01  7.523326486E+01  3.300000131E-01  0.00000E+00  9.000E+00
       4     1     1     2   512     0  3.033292021E+01  3.622817434E+00 -3.382659113E+01  4.560371829E+01  1.500000000E+00  0.00000E+00  9.000E+00
      21     1     1     2   511   513 -1.238042962E+01  8.051005192E+00  5.369527761E+00  1.571386491E+01  3.576278687E-07  0.00000E+00  9.000E+00
</event>
<event>
      5  10001  2.02673E+08  6.37514E+01 -1.00000E+00  1.33284E-01
      21    -1     0     0   514   515  0.000000000E+00  0.000000000E+00  2.789524103E+01  2.789524103E+01  0.000000000E+00  0.00000E+00  9.000E+00
      21    -1     0     0   511   514  0.000000000E+00  0.000000000E+00 -6.595386344E+01  6.595386344E+01  0.000000000E+00  0.00000E+00  9.000E+00
      21     1     1     2   511   513 -5.557306068E+00  1.962445630E+01 -3.510838938E+01  4.060297946E+01  6.743495762E-07  0.00000E+00  9.000E+00
      21     1     1     2   513   512 -2.051706191E+01 -3.776490172E-01 -3.585256289E+00  2.083138283E+01  9.424321831E-08  0.00000E+00  9.000E+00
      21     1     1     2   512   515  2.607436797E+01 -1.924680729E+01  6.350232607E-01  3.241474218E+01  6.698896525E-07  0.00000E+00  9.000E+00
</event>
<event>
      5  10001  2.02673E+08  6.65879E+00 -1.00000E+00  2.18594E-01
       2    -1     0     0   516     0  0.000000000E+00  0.000000000E+00  1.376509569E+03  1.376509569E+03  0.000000000E+00  0.00000E+00  9.000E+00
      21    -1     0     0   511   515  0.000000000E+00  0.000000000E+00 -5.895451887E+00  5.895451887E+00  0.000000000E+00  0.00000E+00  9.000E+00
      21     1     1     2   516   515 -1.081872881E+01  3.039609884E+01  4.401866124E+01  5.457664570E+01  1.261592536E-06  0.00000E+00  9.000E+00
      21     1     1     2   511   513  4.204342128E+00 -2.962870397E+01  3.695438768E+02  3.707535752E+02  5.394796609E-06  0.00000E+00  9.000E+00
       2     1     1     2   513     0  6.614386683E+00 -7.673948696E-01  9.570515793E+02  9.570748003E+02  3.300000131E-01  0.00000E+00  9.000E+00
</event>
<event>
      5  10001  2.02673E+08  1.30469E+01 -1.00000E+00  1.83237E-01
      21    -1     0     0   513   514  0.000000000E+00  0.000000000E+00  5.445222365E+01  5.445222365E+01  0.000000000E+00  0.00000E+00  9.000E+00
      -4    -1     0     0     0   512  0.000000000E+00  0.000000000E+00 -5.142758014E+01  5.142758014E+01  0.000000000E+00  0.00000E+00  9.000E+00
      -4     1     1     2     0   511  2.947927032E+01  2.891325807E+01 -2.219858810E+01  4.690449003E+01  1.500000000E+00  0.00000E+00  9.000E+00
      21     1     1     2   513   512 -1.663515859E+01 -2.663837974E+01  9.512033613E-01  3.142032088E+01  8.876515536E-07  0.00000E+00  9.000E+00
      21     1     1     2   511   514 -1.284411173E+01 -2.274878337E+00  2.427202825E+01  2.755499289E+01  0.000000000E+00  0.00000E+00  9.000E+00
</event>
<event>
      5  10001  2.02673E+08  2.23538E+01 -1.00000E+00  1.62439E-01
      21    -1     0     0   515   511  0.000000000E+00  0.000000000E+00  3.282538765E+01  3.282538765E+01  0.000000000E+00  0.00000E+00  9.000E+00
      21    -1     0     0   514   515  0.000000000E+00  0.000000000E+00 -3.437674673E+01  3.437674673E+01  0.000000000E+00  0.00000E+00  9.000E+00
      21     1     1     2   514   516  2.571906084E+01 -6.734586167E+00 -3.297604000E+00  2.678990357E+01  3.097148194E-07  0.00000E+00  9.000E+00
      21     1     1     2   516   512 -1.941244935E+01  1.699434430E+01 -5.468533094E+00  2.637339156E+01  4.129530925E-07  0.00000E+00  9.000E+00
      21     1     1     2   512   511 -6.306611493E+00 -1.025975814E+01  7.214778014E+00  1.403883925E+01  1.884864366E-07  0.00000E+00  9.000E+00
</event>
<event>
      5  10001  2.02673E+08  2.65416E+01 -1.00000E+00  1.56792E-01
      21    -1     0     0   514   512  0.000000000E+00  0.000000000E+00  1.622953471E+02  1.622953471E+02  0.000000000E+00  0.00000E+00  9.000E+00
      21    -1     0     0   511   513  0.000000000E+00  0.000000000E+00 -6.771449818E+01  6.771449818E+01  0.000000000E+00  0.00000E+00  9.000E+00
      21     1     1     2   517   512  3.061777155E+01  2.305798768E+01  1.145918489E+02  1.208321587E+02  0.000000000E+00  0.00000E+00  9.000E+00
      21     1     1     2   511   517 -2.792106165E+01  3.346232136E+00 -5.705389131E+01  6.360762114E+01  0.000000000E+00  0.00000E+00  9.000E+00
      21     1     1     2   514   513 -2.696709894E+00 -2.640421982E+01  3.704289126E+01  4.557006541E+01  6.743495762E-07  0.00000E+00  9.000E+00
</event>
<event>
      5  10001  2.02673E+08  2.65244E+01 -1.00000E+00  1.56812E-01
      21    -1     0     0   515   516  0.000000000E+00  0.000000000E+00  4.836260919E+02  4.836260919E+02  0.000000000E+00  0.00000E+00  9.000E+00
      21    -1     0     0   516   513  0.000000000E+00  0.000000000E+00 -1.269346484E+01  1.269346484E+01  0.000000000E+00  0.00000E+00  9.000E+00
      -2     1     1     2     0   513  4.019475236E+01 -2.085128755E+01  3.991153873E+01  6.036086591E+01  3.300000131E-01  0.00000E+00  9.000E+00
      21     1     1     2   515   511 -2.970570574E+01  3.448317253E+00  3.779252179E+02  3.791065684E+02  5.394796609E-06  0.00000E+00  9.000E+00
       2     1     1     2   511     0 -1.048904662E+01  1.740297030E+01  5.309587043E+01  5.685212248E+01  3.300000131E-01  0.00000E+00  9.000E+00
</event>
<event>
      5  10001  2.02673E+08  2.75533E+01 -1.00000E+00  1.55615E-01
      21    -1     0     0   512   514  0.000000000E+00  0.000000000E+00  3.101718179E+01  3.101718179E+01  0.000000000E+00  0.00000E+00  9.000E+00
       2    -1     0     0   514     0  0.000000000E+00  0.000000000E+00 -7.081225751E+01  7.081225751E+01  0.000000000E+00  0.00000E+00  9.000E+00
      21     1     1     2   512   511  4.527461713E-01  4.235669929E+01 -2.302419367E+01  4.821211931E+01  6.743495762E-07  0.00000E+00  9.000E+00
       2     1     1     2   513     0  8.275687263E+00 -2.325210389E+01 -2.074208561E+01  3.224112824E+01  3.300000131E-01  0.00000E+00  9.000E+00
      21     1     1     2   511   513 -8.728433434E+00 -1.910459540E+01  3.971203559E+00  2.137619174E+01  4.086288572E-07  0.00000E+00  9.000E+00
</event>
<event>
      5  10001  2.02673E+08  1.07612E+01 -1.00000E+00  1.92089E-01
       2    -1     0     0   511     0  0.000000000E+00  0.000000000E+00  3.236828889E+02  3.236828889E+02  0.000000000E+00  0.00000E+00  9.000E+00
      21    -1     0     0   515   513  0.000000000E+00  0.000000000E+00 -3.030890516E+00  3.030890516E+00  0.000000000E+00  0.00000E+00  9.000E+00
      21     1     1     2   511   513 -2.864204375E+00 -2.657344797E+01  1.073803859E+02  1.106566721E+02  0.000000000E+00  0.00000E+00  9.000E+00
       2     1     1     2   512     0  7.980499859E+00  2.504063839E+01  2.004747545E+02  2.021904004E+02  3.300000131E-01  0.00000E+00  9.000E+00
      21     1     1     2   515   512 -5.116295484E+00  1.532809584E+00  1.279685802E+01  1.386670689E+01  2.920019320E-07  0.00000E+00  9.000E+00
</event>
<event>
      5  10001  2.02673E+08  1.28973E+01 -1.00000E+00  1.83743E-01
      21    -1     0     0   514   512  0.000000000E+00  0.000000000E+00  6.836329785E+02  6.836329785E+02  0.000000000E+00  0.00000E+00  9.000E+00
      21    -1     0     0   515   514  0.000000000E+00  0.000000000E+00 -5.863452589E+00  5.863452589E+00  0.000000000E+00  0.00000E+00  9.000E+00
      21     1     1     2   515   516 -2.387702318E+01  3.231226088E+01  7.865107598E+01  8.831866276E+01  3.015782986E-06  0.00000E+00  9.000E+00
      21     1     1     2   511   512  1.497687397E+01 -2.658803474E+01  5.538046777E+02  5.546447974E+02  1.321449896E-05  0.00000E+00  9.000E+00
      21     1     1     2   516   511  8.900149212E+00 -5.724226141E+00  4.531377227E+01  4.653297087E+01  0.000000000E+00  0.00000E+00  9.000E+00
</event>
<event>
      5  10001  2.02673E+08  2.88615E+01 -1.00000E+00  1.54181E-01
      21    -1     0     0   513   511  0.000000000E+00  0.000000000E+00  1.179590656E+01  1.179590656E+01  0.000000000E+00  0.00000E+00  9.000E+00
       2    -1     0     0   512     0  0.000000000E+00  0.000000000E+00 -3.505476185E+02  3.505476185E+02  0.000000000E+00  0.00000E+00  9.000E+00
      21     1     1     2   512   514  1.968080717E+01  1.479022942E+00 -2.440041347E+00  1.988656535E+01  1.252406918E-06  0.00000E+00  9.000E+00
       2     1     1     2   513     0 -2.327339379E+01 -2.315880729E+01 -2.814335060E+02  2.833423872E+02  3.300000131E-01  0.00000E+00  9.000E+00
      21     1     1     2   514   511  3.592586621E+00  2.167978435E+01 -5.487816463E+01  5.911457250E+01  9.536743164E-07  0.00000E+00  9.000E+00
</event>
<event>
      5  10001  2.02673E+08  7.38840E+00 -1.00000E+00  2.12222E-01
      21    -1     0     0   515   512  0.000000000E+00  0.000000000E+00  1.724024480E+01  1.724024480E+01  0.000000000E+00  0.00000E+00  9.000E+00
      -1    -1     0     0     0   515  0.000000000E+00  0.000000000E+00 -2.879400807E+02  2.879400807E+02  0.000000000E+00  0.00000E+00  9.000E+00
      -1     1     1     2     0   511 -3.878912137E+01 -4.481111009E+00 -2.560380555E+02  2.589985928E+02  3.300000131E-01  0.00000E+00  9.000E+00
       5     1     1     2   511     0  3.155273121E+01  3.181382621E+00 -1.801022710E+01  3.678456639E+01  4.800000191E+00  0.00000E+00  9.000E+00
      -5     1     1     2     0   512  7.236390161E+00  1.299728388E+00  3.348446767E+00  9.397166277E+00  4.800000191E+00  0.00000E+00  9.000E+00
</event>
<event>
      5  10001  2.02673E+08  3.63023E+01 -1.00000E+00  1.47470E-01
       1    -1     0     0   514     0  0.000000000E+00  0.000000000E+00  1.898389219E+02  1.898389219E+02  0.000000000E+00  0.00000E+00  9.000E+00
      21    -1     0     0   511   514  0.000000000E+00  0.000000000E+00 -3.101472879E+01  3.101472879E+01  0.000000000E+00  0.00000E+00  9.000E+00
      21     1     1     2   515   513  7.524316978E+00  1.404495934E+01 -2.167632555E+01  2.690240357E+01  3.371747881E-07  0.00000E+00  9.000E+00
       1     1     1     2   513     0 -2.586357779E+01  3.932114298E+00  1.569216289E+02  1.590876887E+02  3.300000131E-01  0.00000E+00  9.000E+00
      21     1     1     2   511   515  1.833926081E+01 -1.797707364E+01  2.357888975E+01  3.486355842E+01  5.840038640E-07  0.00000E+00  9.000E+00
</event>
<event>
      5  10001  2.02673E+08  1.16976E+01 -1.00000E+00  1.88147E-01
       2    -1     0     0   514     0  0.000000000E+00  0.000000000E+00  8.928738144E+01  8.928738144E+01  0.000000000E+00  0.00000E+00  9.000E+00
      21    -1     0     0   513   516  0.000000000E+00  0.000000000E+00 -8.596995656E+01  8.596995656E+01  0.000000000E+00  0.00000E+00  9.000E+00
      21     1     1     2   513   512 -7.144036912E+01 -2.575990773E+01  2.066624986E+01  7.870446664E+01  1.450243599E-06  0.00000E+00  9.000E+00
       2     1     1     2   512     0  6.618958997E+01  1.530704023E+01  8.222451380E+00  6.843306882E+01  3.300000131E-01  0.00000E+00  9.000E+00
      21     1     1     2   514   516  5.250779149E+00  1.045286750E+01 -2.557127636E+01  2.811980254E+01  4.768371582E-07  0.00000E+00  9.000E+00
</event>
<event>
      5  10001  2.02673E+08  1.38653E+01 -1.00000E+00  1.80614E-01
      21    -1     0     0   512   515  0.000000000E+00  0.000000000E+00  2.520093949E+01  2.520093949E+01  0.000000000E+00  0.00000E+00  9.000E+00
       2    -1     0     0   513     0  0.000000000E+00  0.000000000E+00 -8.931936918E+01  8.931936918E+01  0.000000000E+00  0.00000E+00  9.000E+00
      21     1     1     2   512   511  7.133268922E+00  3.574801191E+01 -9.669063786E+00  3.771332226E+01  9.000103993E-07  0.00000E+00  9.000E+00
       2     1     1     2   511     0  5.866775249E+00 -3.092731124E+01 -5.450361755E+01  6.294180533E+01  3.300000131E-01  0.00000E+00  9.000E+00
      21     1     1     2   513   515 -1.300004417E+01 -4.820700675E+00  5.425164483E-02  1.386518109E+01  2.203153737E-07  0.00000E+00  9.000E+00
</event>
<event>
      5  10001  2.02673E+08  8.76809E+00 -1.00000E+00  2.02535E-01
      21    -1     0     0   514   512  0.000000000E+00  0.000000000E+00  9.829656587E+01  9.829656587E+01  0.000000000E+00  0.00000E+00  9.000E+00
      21    -1     0     0   513   514  0.000000000E+00  0.000000000E+00 -2.026648643E+02  2.026648643E+02  0.000000000E+00  0.00000E+00  9.000E+00
      21     1     1     2   513   515 -4.780217432E+01 -2.488220950E+01 -1.584980129E+02  1.674090569E+02  3.814697266E-06  0.00000E+00  9.000E+00
      21     1     1     2   515   511  5.651875214E+01  2.393318176E+01 -1.555544748E+01  6.331775801E+01  1.118282261E-06  0.00000E+00  9.000E+00
      21     1     1     2   511   512 -8.716577820E+00  9.490277408E-01  6.968516199E+01  7.023461528E+01  1.348699152E-06  0.00000E+00  9.000E+00
</event>
<event>
      5  10001  2.02673E+08  2.95431E+01 -1.00000E+00  1.53469E-01
      21    -1     0     0   516   515  0.000000000E+00  0.000000000E+00  3.879446280E+01  3.879446280E+01  0.000000000E+00  0.00000E+00  9.000E+00
      21    -1     0     0   513   514  0.000000000E+00  0.000000000E+00 -7.113390521E+02  7.113390521E+02  0.000000000E+00  0.00000E+00  9.000E+00
      21     1     1     2   516   512  3.686760117E+01  2.610461450E+01  1.377091863E+01  4.722614863E+01  1.227334755E-06  0.00000E+00  9.000E+00
      21     1     1     2   513   515 -9.549644658E+00 -3.735283153E+01 -3.873009752E+01  5.464842349E+01  1.651812370E-06  0.00000E+00  9.000E+00
      21     1     1     2   512   514 -2.731795651E+01  1.124821703E+01 -6.475854104E+02  6.482589428E+02  1.321449896E-05  0.00000E+00  9.000E+00
</event>
<event>
      5  10001  2.02673E+08  2.17331E+01 -1.00000E+00  1.63405E-01
      21    -1     0     0   511   513  0.000000000E+00  0.000000000E+00  1.000877828E+02  1.000877828E+02  0.000000000E+00  0.00000E+00  9.000E+00
      21    -1     0     0   512   517  0.000000000E+00  0.000000000E+00 -9.286098514E+00  9.286098514E+00  0.000000000E+00  0.00000E+00  9.000E+00
      21     1     1     2   511   517 -9.029464926E+00 -2.636857299E+01  5.011877641E+01  5.734740297E+01  9.536743164E-07  0.00000E+00  9.000E+00
      21     1     1     2   512   515  8.357026686E+00  7.594178921E+00  2.544165664E+01  2.783503801E+01  3.371747881E-07  0.00000E+00  9.000E+00
      21     1     1     2   515   513  6.724382404E-01  1.877439407E+01  1.524125122E+01  2.419144031E+01  1.685873940E-07  0.00000E+00  9.000E+00
</event>
<event>
      5  10001  2.02673E+08  3.01578E+01 -1.00000E+00  1.52847E-01
      21    -1     0     0   514   512  0.000000000E+00  0.000000000E+00  1.484672951E+01  1.484672951E+01  0.000000000E+00  0.00000E+00  9.000E+00
       2    -1     0     0   513     0  0.000000000E+00  0.000000000E+00 -1.981958081E+02  1.981958081E+02  0.000000000E+00  0.00000E+00  9.000E+00
      21     1     1     2   513   511 -1.623365067E+01  2.597730914E+00 -2.618145596E+00  1.664735134E+01  3.195943026E-07  0.00000E+00  9.000E+00
       2     1     1     2   514     0  2.477714523E+01  2.194059254E+01 -1.593361063E+02  1.627372121E+02  3.300000131E-01  0.00000E+00  9.000E+00
      21     1     1     2   511   512 -8.543494559E+00 -2.453832346E+01 -2.139482670E+01  3.365797419E+01  9.830249847E-07  0.00000E+00  9.000E+00
</event>
<event>
      5  10001  2.02673E+08  1.75931E+01 -1.00000E+00  1.71055E-01
      21    -1     0     0   513   512  0.000000000E+00  0.000000000E+00  1.477659932E+02  1.477659932E+02  0.000000000E+00  0.00000E+00  9.000E+00
      21    -1     0     0   512   514  0.000000000E+00  0.000000000E+00 -3.684919362E+01  3.684919362E+01  0.000000000E+00  0.00000E+00  9.000E+00
      -4     1     1     2     0   514  1.598953320E+01  2.226773173E+01 -1.959134799E+01  3.372814795E+01  1.500000000E+00  0.00000E+00  9.000E+00
       4     1     1     2   515     0 -3.287758770E+01 -2.717860414E+01  3.937102077E+01  5.806840425E+01  1.500000000E+00  0.00000E+00  9.000E+00
      21     1     1     2   513   515  1.688805450E+01  4.910872410E+00  9.113712684E+01  9.281863467E+01  1.907348633E-06  0.00000E+00  9.000E+00
</event>
<event>
      5  10001  2.02673E+08  2.70142E+01 -1.00000E+00  1.56234E-01
      21    -1     0     0   511   516  0.000000000E+00  0.000000000E+00  1.404236521E+02  1.404236521E+02  0.000000000E+00  0.00000E+00  9.000E+00
      21    -1     0     0   512   511  0.000000000E+00  0.000000000E+00 -1.817118160E+01  1.817118160E+01  0.000000000E+00  0.00000E+00  9.000E+00
      21     1     1     2   515   516  4.296320301E+01 -1.627362364E+01  6.077821181E+01  7.618831058E+01  1.168007728E-06  0.00000E+00  9.000E+00
      21     1     1     2   514   515 -2.398410810E+01  1.402698685E+01  5.601998609E+01  6.253185302E+01  1.651812370E-06  0.00000E+00  9.000E+00
      21     1     1     2   512   514 -1.897909491E+01  2.246636783E+00  5.454272557E+00  1.987467005E+01  7.794318694E-07  0.00000E+00  9.000E+00
</event>
<event>
      5  10001  2.02673E+08  6.83215E+00 -1.00000E+00  2.16982E-01
      21    -1     0     0   512   514  0.000000000E+00  0.000000000E+00  1.079305448E+02  1.079305448E+02  0.000000000E+00  0.00000E+00  9.000E+00
      -5    -1     0     0     0   513  0.000000000E+00  0.000000000E+00 -1.854148859E+01  1.854148859E+01  0.000000000E+00  0.00000E+00  9.000E+00
      21     1     1     2   511   514  2.393902835E+01  1.017103362E+01  7.862900620E+00  2.717263715E+01  6.251387883E-07  0.00000E+00  9.000E+00
      21     1     1     2   512   513 -3.028667063E+01 -1.431870679E+01  8.362264132E+01  9.008359408E+01  1.348699152E-06  0.00000E+00  9.000E+00
      -5     1     1     2     0   511  6.347642284E+00  4.147673167E+00 -2.096485729E+00  9.215802163E+00  4.800000191E+00  0.00000E+00  9.000E+00
</event>
<event>
      5  10001  2.02673E+08  2.42434E+01 -1.00000E+00  1.59719E-01
      21    -1     0     0   512   511  0.000000000E+00  0.000000000E+00  2.993426987E+01  2.993426987E+01  0.000000000E+00  0.00000E+00  9.000E+00
      21    -1     0     0   516   515  0.000000000E+00  0.000000000E+00 -1.758390698E+02  1.758390698E+02  0.000000000E+00  0.00000E+00  9.000E+00
      21     1     1     2   517   511 -1.324145600E+01 -3.839372495E+01 -2.483313102E+01  4.760355731E+01  1.066240300E-06  0.00000E+00  9.000E+00
      21     1     1     2   516   517  3.643448571E+01  3.133508885E+01 -1.247158600E+02  1.336540507E+02  1.907348633E-06  0.00000E+00  9.000E+00
      21     1     1     2   512   515 -2.319302971E+01  7.058636100E+00  3.644191045E+00  2.451573167E+01  3.318646170E-07  0.00000E+00  9.000E+00
</event>
<event>
      5  10001  2.02673E+08  5.63154E+00 -1.00000E+00  2.29751E-01
       1    -1     0     0   511     0  0.000000000E+00  0.000000000E+00  1.514488452E+03  1.514488452E+03  0.000000000E+00  0.00000E+00  9.000E+00
      21    -1     0     0   513   514  0.000000000E+00  0.000000000E+00 -5.615460365E+00  5.615460365E+00  0.000000000E+00  0.00000E+00  9.000E+00
      21     1     1     2   513   512 -3.423099993E+01 -5.454613434E+00  5.094376217E+01  6.161802551E+01  2.236564522E-06  0.00000E+00  9.000E+00
       1     1     1     2   512     0  2.922561374E+01  2.873884890E+00  1.393935990E+03  1.394245334E+03  3.300000131E-01  0.00000E+00  9.000E+00
      21     1     1     2   511   514  5.005386196E+00  2.580728544E+00  6.399323894E+01  6.424055324E+01  6.743495762E-07  0.00000E+00  9.000E+00
</event>
<event>
      5  10001  2.02673E+08  7.80116E+00 -1.00000E+00  2.09043E-01
      21    -1     0     0   515   512  0.000000000E+00  0.000000000E+00  1.989813213E+02  1.989813213E+02  0.000000000E+00  0.00000E+00  9.000E+00
      21    -1     0     0   517   516  0.000000000E+00  0.000000000E+00 -8.548903369E+01  8.548903369E+01  0.000000000E+00  0.00000E+00  9.000E+00
      21     1     1     2   515   516  6.357804232E+01  1.516283295E+01  1.788944525E+02  1.904607679E+02  3.303624740E-06  0.00000E+00  9.000E+00
      21     1     1     2   513   512 -5.754809247E+01 -1.021331349E+01 -5.073119191E+01  7.739346582E+01  1.507891493E-06  0.00000E+00  9.000E+00
      21     1     1     2   517   513 -6.029949849E+00 -4.949519461E+00 -1.467097299E+01  1.661612128E+01  0.000000000E+00  0.00000E+00  9.000E+00
</event>
<event>
      5  10001  2.02673E+08  6.43492E+01 -1.00000E+00  1.33073E-01
      21    -1     0     0   511   513  0.000000000E+00  0.000000000E+00  3.677126267E+02  3.677126267E+02  0.000000000E+00  0.00000E+00  9.000E+00
      21    -1     0     0   517   514  0.000000000E+00  0.000000000E+00 -2.973686266E+01  2.973686266E+01  0.000000000E+00  0.00000E+00  9.000E+00
      21     1     1     2   511   514  8.660514981E+00  5.855533687E+01  2.915832067E+02  2.975306680E+02  5.394796609E-06  0.00000E+00  9.000E+00
      21     1     1     2   512   513  2.618561608E+01 -4.102397804E+01  3.244685890E+01  5.849317837E+01  8.259061849E-07  0.00000E+00  9.000E+00
      21     1     1     2   517   512 -3.484613106E+01 -1.753135882E+01  1.394569850E+01  4.142564301E+01  1.283923342E-06  0.00000E+00  9.000E+00
</event>
<event>
      5  10001  2.02673E+08  1.30984E+01 -1.00000E+00  1.83065E-01
      21    -1     0     0   511   512  0.000000000E+00  0.000000000E+00  3.522263051E+01  3.522263051E+01  0.000000000E+00  0.00000E+00  9.000E+00
       1    -1     0     0   513     0  0.000000000E+00  0.000000000E+00 -3.458165652E+02  3.458165652E+02  0.000000000E+00  0.00000E+00  9.000E+00
      21     1     1     2   513   512  4.622492196E+01  1.564131357E+01 -1.823786224E+02  1.887944809E+02  0.000000000E+00  0.00000E+00  9.000E+00
       1     1     1     2   515     0 -5.920286449E+01 -1.386924027E+01 -1.527635108E+02  1.644206013E+02  3.300000131E-01  0.00000E+00  9.000E+00
      21     1     1     2   511   515  1.297794253E+01 -1.772073306E+00  2.454819860E+01  2.782411348E+01  1.348699152E-06  0.00000E+00  9.000E+00
</event>
<event>
      5  10001  2.02673E+08  8.27239E+00 -1.00000E+00  2.05723E-01
      -1    -1     0     0     0   513  0.000000000E+00  0.000000000E+00  2.661666175E+01  2.661666175E+01  0.000000000E+00  0.00000E+00  9.000E+00
       2    -1     0     0   513     0  0.000000000E+00  0.000000000E+00 -1.129224393E+02  1.129224393E+02  0.000000000E+00  0.00000E+00  9.000E+00
      -1     1     1     2     0   511  1.247025365E+01  3.928614585E+01  2.090367727E+00  4.127210946E+01  3.300000131E-01  0.00000E+00  9.000E+00
       2     1     1     2   512     0 -3.838384445E+00 -2.591944018E+01 -6.381278664E+01  6.898355756E+01  3.300000131E-01  0.00000E+00  9.000E+00
      21     1     1     2   511   512 -8.631869210E+00 -1.336670567E+01 -2.458335860E+01  2.928343399E+01  3.371747881E-07  0.00000E+00  9.000E+00
</event>
<event>
      5  10001  2.02673E+08  8.48257E+00 -1.00000E+00  2.04335E-01
      21    -1     0     0   513   512  0.000000000E+00  0.000000000E+00  2.712863522E+01  2.712863522E+01  0.000000000E+00  0.00000E+00  9.000E+00
       3    -1     0     0   512     0  0.000000000E+00  0.000000000E+00 -2.246626347E+02  2.246626347E+02  0.000000000E+00  0.00000E+00  9.000E+00
      21     1     1     2   511   514  7.523478653E+00  2.885096672E+01 -7.455148198E+01  8.029261783E+01  1.907348633E-06  0.00000E+00  9.000E+00
       3     1     1     2   514     0 -1.471004226E+01 -3.335710057E+01 -1.441528329E+02  1.486922013E+02  5.000000000E-01  0.00000E+00  9.000E+00
      21     1     1     2   513   511  7.186563607E+00  4.506133855E+00  2.117031544E+01  2.280645073E+01  3.371747881E-07  0.00000E+00  9.000E+00
</event>
<event>
      5  10001  2.02673E+08  1.85466E+01 -1.00000E+00  1.69076E-01
      21    -1     0     0   512   511  0.000000000E+00  0.000000000E+00  2.155319653E+02  2.155319653E+02  0.000000000E+00  0.00000E+00  9.000E+00
      -3    -1     0     0     0   513  0.000000000E+00  0.000000000E+00 -1.407205865E+02  1.407205865E+02  0.000000000E+00  0.00000E+00  9.000E+00
      -5     1     1     2     0   513  2.074566785E+01  3.322278959E+01  2.688449073E+01  4.774884633E+01  4.800000191E+00  0.00000E+00  9.000E+00
      -3     1     1     2     0   511 -2.119558310E+01 -1.470027394E+01 -1.284885410E+02  1.310530655E+02  5.000000000E-01  0.00000E+00  9.000E+00
       5     1     1     2   512     0  4.499152515E-01 -1.852251565E+01  1.764154291E+02  1.774506400E+02  4.800000191E+00  0.00000E+00  9.000E+00
</event>
<event>
      5  10001  2.02673E+08  2.56589E+01 -1.00000E+00  1.57872E-01
      -2    -1     0     0     0   514  0.000000000E+00  0.000000000E+00  1.586089325E+01  1.586089325E+01  0.000000000E+00  0.00000E+00  9.000E+00
      21    -1     0     0   514   512  0.000000000E+00  0.000000000E+00 -6.831413280E+01  6.831413280E+01  0.000000000E+00  0.00000E+00  9.000E+00
      21     1     1     2   513   511  1.245325760E+01 -8.468362989E+00 -3.404817389E+01  3.723002742E+01  4.768371582E-07  0.00000E+00  9.000E+00
      21     1     1     2   511   512 -2.658084728E+01  3.128779671E-01 -1.400446092E+01  3.004603569E+01  2.920019320E-07  0.00000E+00  9.000E+00
      -2     1     1     2     0   513  1.412758968E+01  8.155485022E+00 -4.400604736E+00  1.689896293E+01  3.300000131E-01  0.00000E+00  9.000E+00
</event>
<event>
      5  10001  2.02673E+08  1.90127E+01 -1.00000E+00  1.68161E-01
      -3    -1     0     0     0   513  0.000000000E+00  0.000000000E+00  2.223740726E+01  2.223740726E+01  0.000000000E+00  0.00000E+00  9.000E+00
       1    -1     0     0   513     0  0.000000000E+00  0.000000000E+00 -4.388710020E+01  4.388710020E+01  0.000000000E+00  0.00000E+00  9.000E+00
      -3     1     1     2     0   512  1.039315531E+01  2.579182874E+01 -5.031059050E+00  2.826300872E+01  5.000000000E-01  0.00000E+00  9.000E+00
       1     1     1     2   511     0 -1.181008062E+00 -1.365693542E+01 -1.792725840E+01  2.256993928E+01  3.300000131E-01  0.00000E+00  9.000E+00
      21     1     1     2   512   511 -9.212147246E+00 -1.213489331E+01  1.308624521E+00  1.529155946E+01  2.149076030E-07  0.00000E+00  9.000E+00
</event>
<event>
      5  10001  2.02673E+08  2.40742E+01 -1.00000E+00  1.59950E-01
       2    -1     0     0   512     0  0.000000000E+00  0.000000000E+00  4.572000345E+01  4.572000345E+01  0.000000000E+00  0.00000E+00  9.000E+00
      21    -1     0     0   513   511  0.000000000E+00  0.000000000E+00 -1.489361943E+02  1.489361943E+02  0.000000000E+00  0.00000E+00  9.000E+00
      21     1     1     2   512   511  1.007453297E+01  2.457217408E+01 -3.203544576E+01  4.161199033E+01  6.743495762E-07  0.00000E+00  9.000E+00
       2     1     1     2   514     0 -3.387005195E+01 -2.092068872E+01  2.948414271E+01  4.954068234E+01  3.300000131E-01  0.00000E+00  9.000E+00
      21     1     1     2   513   514  2.379551898E+01 -3.651485356E+00 -1.006648878E+02  1.035035251E+02  1.348699152E-06  0.00000E+00  9.000E+00
</event>
<event>
      5  10001  2.02673E+08  6.88809E+00 -1.00000E+00  2.16476E-01
      21    -1     0     0   511   514  0.000000000E+00  0.000000000E+00  8.501509634E+02  8.501509634E+02  0.000000000E+00  0.00000E+00  9.000E+00
       4    -1     0     0   515     0  0.000000000E+00  0.000000000E+00 -5.817115697E+01  5.817115697E+01  0.000000000E+00  0.00000E+00  9.000E+00
      21     1     1     2   515   514  1.385667273E+01  3.184925903E+01 -1.086549207E+01  3.639287839E+01  1.192092896E-06  0.00000E+00  9.000E+00
       4     1     1     2   513     0 -2.072786408E+01 -3.232964359E+01 -2.383256306E+01  4.522268530E+01  1.500000000E+00  0.00000E+00  9.000E+00
      21     1     1     2   511   513  6.871191353E+00  4.803845555E-01  8.266778615E+02  8.267065566E+02  0.000000000E+00  0.00000E+00  9.000E+00
</event>
<event>
      5  10001  2.02673E+08  1.65580E+02 -1.00000E+00  1.14698E-01
      21    -1     0     0   513   514  0.000000000E+00  0.000000000E+00  1.622291740E+02  1.622291740E+02  0.000000000E+00  0.00000E+00  9.000E+00
       1    -1     0     0   514     0  0.000000000E+00  0.000000000E+00 -7.381213306E+01  7.381213306E+01  0.000000000E+00  0.00000E+00  9.000E+00
      21     1     1     2   513   515  4.835964336E+01 -2.644235559E+01  5.849361637E+00  5.542624204E+01  1.049448065E-06  0.00000E+00  9.000E+00
       1     1     1     2   512     0 -1.057952941E+01  1.854692899E+01 -4.366851792E+01  4.861032169E+01  3.300000131E-01  0.00000E+00  9.000E+00
      21     1     1     2   515   512 -3.778011396E+01  7.895426594E+00  1.262361973E+02  1.320047434E+02  2.336015456E-06  0.00000E+00  9.000E+00
</event>
<event>
      5  10001  2.02673E+08  4.46330E+00 -1.00000E+00  2.52638E-01
      21    -1     0     0   511   512  0.000000000E+00  0.000000000E+00  3.020605911E+02  3.020605911E+02  0.000000000E+00  0.00000E+00  9.000E+00
      21    -1     0     0   514   516  0.000000000E+00  0.000000000E+00 -6.995377524E+01  6.995377524E+01  0.000000000E+00  0.00000E+00  9.000E+00
      21     1     1     2   511   516 -2.164168940E+01  2.551515801E+01  2.968144344E+02  2.986941487E+02  3.814697266E-06  0.00000E+00  9.000E+00
      21     1     1     2   514   513  1.460180770E+01 -1.732008890E+01 -5.146080984E+01  5.622644589E+01  1.507891493E-06  0.00000E+00  9.000E+00
      21     1     1     2   513   512  7.039881696E+00 -8.195069107E+00 -1.324680869E+01  1.709377174E+01  5.057621821E-07  0.00000E+00  9.000E+00
</event>
<event>
      5  10001  2.02673E+08  3.24833E+01 -1.00000E+00  1.50645E-01
      21    -1     0     0   513   512  0.000000000E+00  0.000000000E+00  1.171572552E+02  1.171572552E+02  0.000000000E+00  0.00000E+00  9.000E+00
      -3    -1     0     0     0   515  0.000000000E+00  0.000000000E+00 -1.434000528E+01  1.434000528E+01  0.000000000E+00  0.00000E+00  9.000E+00
      21     1     1     2   511   512 -2.244053618E+01  3.287736033E-01  7.575355535E+01  7.900814455E+01  0.000000000E+00  0.00000E+00  9.000E+00
      21     1     1     2   513   515  2.804494414E+01  1.017500501E+01  2.748684283E+01  4.056570161E+01  8.920806376E-07  0.00000E+00  9.000E+00
      -3     1     1     2     0   511 -5.604407956E+00 -1.050377861E+01 -4.231482916E-01  1.192341428E+01  5.000000000E-01  0.00000E+00  9.000E+00
</event>
<event>
      5  10001  2.02673E+08  1.18303E+01 -1.00000E+00  1.87627E-01
      21    -1     0     0   514   515  0.000000000E+00  0.000000000E+00  1.455471723E+02  1.455471723E+02  0.000000000E+00  0.00000E+00  9.000E+00
      -1    -1     0     0     0   511  0.000000000E+00  0.000000000E+00 -1.873463079E+01  1.873463079E+01  0.000000000E+00  0.00000E+00  9.000E+00
      -1     1     1     2     0   512  1.101991820E+01  3.033083864E+00  1.800948462E+01  2.133280645E+01  3.300000131E-01  0.00000E+00  9.000E+00
      21     1     1     2   514   511 -4.439011529E+01 -1.723762333E+01  3.021632674E+01  5.639720202E+01  3.371747881E-07  0.00000E+00  9.000E+00
      21     1     1     2   512   515  3.337019709E+01  1.420453946E+01  7.858673013E+01  8.655179460E+01  9.536743164E-07  0.00000E+00  9.000E+00
</event>
<event>
      5  10001  2.02673E+08  1.26767E+01 -1.00000E+00  1.84506E-01
      21    -1     0     0   513   512  0.000000000E+00  0.000000000E+00  2.588657591E+02  2.588657591E+02  0.000000000E+00  0.00000E+00  9.000E+00
      21    -1     0     0   515   511  0.000000000E+00  0.000000000E+00 -3.377704682E+01  3.377704682E+01  0.000000000E+00  0.00000E+00  9.000E+00
      21     1     1     2   515   516 -4.261048038E-01  4.250600136E+01 -1.111043854E+01  4.393613048E+01  2.044013524E-06  0.00000E+00  9.000E+00
      21     1     1     2   516   512  1.300608121E+01 -4.094322646E+01  2.310735913E+02  2.350329988E+02  0.000000000E+00  0.00000E+00  9.000E+00
      21     1     1     2   513   511 -1.257997641E+01 -1.562774899E+00  5.125559541E+00  1.367367663E+01  2.064765462E-07  0.00000E+00  9.000E+00
</event>
<event>
      5  10001  2.02673E+08  1.15000E+01 -1.00000E+00  1.88938E-01
      21    -1     0     0   515   512  0.000000000E+00  0.000000000E+00  3.906518457E+01  3.906518457E+01  0.000000000E+00  0.00000E+00  9.000E+00
       1    -1     0     0   513     0  0.000000000E+00  0.000000000E+00 -2.626864201E+02  2.626864201E+02  0.000000000E+00  0.00000E+00  9.000E+00
      21     1     1     2   513   512 -2.472512120E+01 -1.027966392E+01 -5.618752846E+01  6.224179836E+01  9.536743164E-07  0.00000E+00  9.000E+00
       1     1     1     2   514     0  3.078594368E+01  2.005292717E+01 -2.008432481E+02  2.041764272E+02  3.300000131E-01  0.00000E+00  9.000E+00
      21     1     1     2   515   514 -6.060822479E+00 -9.773263250E+00  3.340954106E+01  3.533337908E+01  1.430511475E-06  0.00000E+00  9.000E+00
</event>
<event>
      5  10001  2.02673E+08  3.53948E+01 -1.00000E+00  1.48181E-01
      21    -1     0     0   511   513  0.000000000E+00  0.000000000E+00  2.197463485E+02  2.197463485E+02  0.000000000E+00  0.00000E+00  9.000E+00
      -3    -1     0     0     0   512  0.000000000E+00  0.000000000E+00 -2.624649180E+02  2.624649180E+02  0.000000000E+00  0.00000E+00  9.000E+00
      -3     1     1     2     0   515 -2.010630040E+02  1.517383119E+01 -1.129495716E+02  2.311156257E+02  5.000000000E-01  0.00000E+00  9.000E+00
      21     1     1     2   515   513  1.758506263E+02  9.668223415E+00  1.020113053E+02  2.035269606E+02  4.672030912E-06  0.00000E+00  9.000E+00
      21     1     1     2   511   512  2.521237773E+01 -2.484205460E+01 -3.178030316E+01  4.756868021E+01  0.000000000E+00  0.00000E+00  9.000E+00
</event>
<event>
      5  10001  2.02673E+08  5.81684E+00 -1.00000E+00  2.27503E-01
      21    -1     0     0   514   513  0.000000000E+00  0.000000000E+00  8.153601142E+02  8.153601142E+02  0.000000000E+00  0.00000E+00  9.000E+00
      21    -1     0     0   516   514  0.000000000E+00  0.000000000E+00 -4.005187272E+00  4.005187272E+00  0.000000000E+00  0.00000E+00  9.000E+00
      21     1     1     2   516   512 -1.054129564E+01  3.673687677E+01  1.053360264E+02  1.120553233E+02  1.348699152E-06  0.00000E+00  9.000E+00
      21     1     1     2   512   515  1.263608716E+01 -3.131032906E+01  4.664227643E+02  4.676432427E+02  5.394796609E-06  0.00000E+00  9.000E+00
      21     1     1     2   515   513 -2.094791522E+00 -5.426547712E+00  2.395961363E+02  2.396667355E+02  0.000000000E+00  0.00000E+00  9.000E+00
</event>
<event>
      5  10001  2.02673E+08  1.05094E+01 -1.00000E+00  1.93239E-01
      21    -1     0     0   511   512  0.000000000E+00  0.000000000E+00  6.011516668E+01  6.011516668E+01  0.000000000E+00  0.00000E+00  9.000E+00
      21    -1     0     0   516   513  0.000000000E+00  0.000000000E+00 -2.604205716E+01  2.604205716E+01  0.000000000E+00  0.00000E+00  9.000E+00
      21     1     1     2   511   513  6.998847638E+00 -3.117674330E+01 -6.675952253E+00  3.264263362E+01  8.596304120E-07  0.00000E+00  9.000E+00
      21     1     1     2   516   514 -4.019983614E+00  1.628618228E+01  3.162537847E+01  3.579894642E+01  4.768371582E-07  0.00000E+00  9.000E+00
      21     1     1     2   514   512 -2.978864024E+00  1.489056102E+01  9.123683307E+00  1.771564381E+01  5.591411304E-07  0.00000E+00  9.000E+00
</event>
<event>
      5  10001  2.02673E+08  6.40782E+01 -1.00000E+00  1.33168E-01
       2    -1     0     0   513     0  0.000000000E+00  0.000000000E+00  6.736433885E+01  6.736433885E+01  0.000000000E+00  0.00000E+00  9.000E+00
      21    -1     0     0   514   515  0.000000000E+00  0.000000000E+00 -8.733823758E+01  8.733823758E+01  0.000000000E+00  0.00000E+00  9.000E+00
      21     1     1     2   513   515 -2.560613647E+01  2.205630694E+01 -6.423582660E+01  7.258371939E+01  1.348699152E-06  0.00000E+00  9.000E+00
       2     1     1     2   511     0 -3.072154914E+00  1.171844641E+01  3.474861506E+01  3.680129442E+01  3.300000131E-01  0.00000E+00  9.000E+00
      21     1     1     2   514   511  2.867829138E+01 -3.377475336E+01  9.513312812E+00  4.531756262E+01  8.596304120E-07  0.00000E+00  9.000E+00
</event>
<event>
      5  10001  2.02673E+08  1.97021E+01 -1.00000E+00  1.66867E-01
       1    -1     0     0   514     0  0.000000000E+00  0.000000000E+00  3.930571400E+02  3.930571400E+02  0.000000000E+00  0.00000E+00  9.000E+00
      21    -1     0     0   512   511  0.000000000E+00  0.000000000E+00 -9.376505879E+00  9.376505879E+00  0.000000000E+00  0.00000E+00  9.000E+00
      21     1     1     2   513   511  1.441274095E+01 -7.358559341E+00  2.814381781E+00  1.642547540E+01  3.650024150E-07  0.00000E+00  9.000E+00
       1     1     1     2   512     0 -3.130640151E+01  1.575005859E+01  3.281982264E+02  3.300641451E+02  3.300000131E-01  0.00000E+00  9.000E+00
      21     1     1     2   514   513  1.689366057E+01 -8.391499251E+00  5.266802586E+01  5.594402537E+01  0.000000000E+00  0.00000E+00  9.000E+00
</event>
<event>
      5  10001  2.02673E+08  6.51230E+00 -1.00000E+00  2.20009E-01
      21    -1     0     0   515   511  0.000000000E+00  0.000000000E+00  1.806578331E+02  1.806578331E+02  0.000000000E+00  0.00000E+00  9.000E+00
      21    -1     0     0   516   513  0.000000000E+00  0.000000000E+00 -7.571204848E+00  7.571204848E+00  0.000000000E+00  0.00000E+00  9.000E+00
      21     1     1     2   515   513  1.601418420E+01  2.873285929E+01  4.497009350E+01  5.571660981E+01  1.348699152E-06  0.00000E+00  9.000E+00
      21     1     1     2   512   511 -6.585528866E+00 -1.781858956E+01  8.301859300E+01  8.516430066E+01  1.348699152E-06  0.00000E+00  9.000E+00
      21     1     1     2   516   512 -9.428655338E+00 -1.091426973E+01  4.509794177E+01  4.734812750E+01  4.768371582E-07  0.00000E+00  9.000E+00
</event>
<event>
      5  10001  2.02673E+08  1.43890E+01 -1.00000E+00  1.79053E-01
      21    -1     0     0   514   512  0.000000000E+00  0.000000000E+00  6.957658642E+00  6.957658642E+00  0.000000000E+00  0.00000E+00  9.000E+00
      21    -1     0     0   516   517  0.000000000E+00  0.000000000E+00 -1.480001577E+02  1.480001577E+02  0.000000000E+00  0.00000E+00  9.000E+00
      21     1     1     2   514   517 -1.027199978E+00  2.925421946E+01 -4.316715282E+01  5.215618448E+01  4.768371582E-07  0.00000E+00  9.000E+00
      21     1     1     2   511   512  5.556938949E+00 -1.007631560E+01 -4.225158497E+01  4.379050284E+01  9.536743164E-07  0.00000E+00  9.000E+00
      21     1     1     2   516   511 -4.529738971E+00 -1.917790386E+01 -5.562376129E+01  5.901112905E+01  0.000000000E+00  0.00000E+00  9.000E+00
</event>
<event>
      5  10001  2.02673E+08  1.28467E+01 -1.00000E+00  1.83917E-01
      21    -1     0     0   513   511  0.000000000E+00  0.000000000E+00  2.890463604E+02  2.890463604E+02  0.000000000E+00  0.00000E+00  9.000E+00
      21    -1     0     0   515   513  0.000000000E+00  0.000000000E+00 -1.242347127E+01  1.242347127E+01  0.000000000E+00  0.00000E+00  9.000E+00
      21     1     1     2   515   516  3.105309521E+01 -4.930697638E-01  1.203589591E+01  3.330766624E+01  9.233911863E-07  0.00000E+00  9.000E+00
      21     1     1     2   512   511 -2.357596047E+01 -5.050423533E+00  2.477761501E+02  2.489464867E+02  0.000000000E+00  0.00000E+00  9.000E+00
      21     1     1     2   516   512 -7.477134742E+00  5.543493296E+00  1.681084310E+01  1.921567870E+01  3.371747881E-07  0.00000E+00  9.000E+00
</event>
<event>
      5  10001  2.02673E+08  1.05980E+01 -1.00000E+00  1.92829E-01
       2    -1     0     0   513     0  0.000000000E+00  0.000000000E+00  5.903922935E+02  5.903922935E+02  0.000000000E+00  0.00000E+00  9.000E+00
      21    -1     0     0   512   511  0.000000000E+00  0.000000000E+00 -7.410976784E+01  7.410976784E+01  0.000000000E+00  0.00000E+00  9.000E+00
      21     1     1     2   512   514 -1.424153231E+01 -3.236459337E+01 -5.825711472E+01  6.814821760E+01  6.743495762E-07  0.00000E+00  9.000E+00
       2     1     1     2   514     0  5.304882792E+00  3.806139458E+01  5.820799142E+02  5.833471925E+02  3.300000131E-01  0.00000E+00  9.000E+00
      21     1     1     2   513   511  8.936649514E+00 -5.696801205E+00 -7.540273814E+00  1.300665129E+01  1.460009660E-07  0.00000E+00  9.000E+00
</event>
<event>
      5  10001  2.02673E+08  1.58177E+01 -1.00000E+00  1.75193E-01
      21    -1     0     0   515   511  0.000000000E+00  0.000000000E+00  7.892469263E+01  7.892469263E+01  0.000000000E+00  0.00000E+00  9.000E+00
      21    -1     0     0   512   516  0.000000000E+00  0.000000000E+00 -5.347112716E+01  5.347112716E+01  0.000000000E+00  0.00000E+00  9.000E+00
      21     1     1     2   515   516  2.188809546E+01 -3.134827751E+01 -4.047721827E+01  5.567951530E+01  4.768371582E-07  0.00000E+00  9.000E+00
      21     1     1     2   514   511 -4.812151138E+00  1.040827627E+01  1.334418779E+01  1.759421385E+01  0.000000000E+00  0.00000E+00  9.000E+00
      21     1     1     2   512   514 -1.707594432E+01  2.094000124E+01  5.258659595E+01  5.912209063E+01  6.743495762E-07  0.00000E+00  9.000E+00
</event>
<event>
      5  10001  2.02673E+08  9.22568E+00 -1.00000E+00  1.99831E-01
      -4    -1     0     0     0   513  0.000000000E+00  0.000000000E+00  1.614569433E+02  1.614569433E+02  0.000000000E+00  0.00000E+00  9.000E+00
      21    -1     0     0   511   514  0.000000000E+00  0.000000000E+00 -6.601845610E+00  6.601845610E+00  0.000000000E+00  0.00000E+00  9.000E+00
      -4     1     1     2     0   515  1.532247474E+01 -1.391811111E+01  6.090191393E+01  6.434116232E+01  1.500000000E+00  0.00000E+00  9.000E+00
      21     1     1     2   511   513 -2.768294320E+01  1.496688492E+01  6.974857740E+01  7.651938995E+01  0.000000000E+00  0.00000E+00  9.000E+00
      21     1     1     2   515   514  1.236046846E+01 -1.048773812E+00  2.420460633E+01  2.719823661E+01  3.371747881E-07  0.00000E+00  9.000E+00
</event>
<event>
      5  10001  2.02673E+08  2.83698E+01 -1.00000E+00  1.54709E-01
      21    -1     0     0   512   511  0.000000000E+00  0.000000000E+00  9.156655218E+01  9.156655218E+01  0.000000000E+00  0.00000E+00  9.000E+00
      21    -1     0     0   515   516  0.000000000E+00  0.000000000E+00 -1.397039691E+02  1.397039691E+02  0.000000000E+00  0.00000E+00  9.000E+00
      21     1     1     2   512   516  2.576483690E+01 -3.296848256E+01 -1.278935248E+02  1.345641162E+02  1.348699152E-06  0.00000E+00  9.000E+00
      21     1     1     2   513   511 -1.683205824E+00  1.285321904E+01  5.564515281E+01  5.713511576E+01  1.651812370E-06  0.00000E+00  9.000E+00
      21     1     1     2   515   513 -2.408163107E+01  2.011526353E+01  2.411095514E+01  3.957128933E+01  9.536743164E-07  0.00000E+00  9.000E+00
</event>
<event>
      5  10001  2.02673E+08  4.43708E+00 -1.00000E+00  2.53191E-01
      21    -1     0     0   514   511  0.000000000E+00  0.000000000E+00  8.012266578E+00  8.012266578E+00  0.000000000E+00  0.00000E+00  9.000E+00
      21    -1     0     0   515   512  0.000000000E+00  0.000000000E+00 -2.403169161E+02  2.403169161E+02  0.000000000E+00  0.00000E+00  9.000E+00
      21     1     1     2   513   511 -2.918663263E+01  3.520064407E+00 -2.764198459E+01  4.035256732E+01  5.840038640E-07  0.00000E+00  9.000E+00
      21     1     1     2   515   513  3.184025986E+01  3.604925300E-02 -1.631841394E+02  1.662614411E+02  0.000000000E+00  0.00000E+00  9.000E+00
      21     1     1     2   514   512 -2.653627226E+00 -3.556113660E+00 -4.147852556E+01  4.171517427E+01  8.259061849E-07  0.00000E+00  9.000E+00
</event>
<event>
      5  10001  2.02673E+08  1.05755E+01 -1.00000E+00  1.92933E-01
      21    -1     0     0   516   515  0.000000000E+00  0.000000000E+00  1.148307896E+01  1.148307896E+01  0.000000000E+00  0.00000E+00  9.000E+00
       2    -1     0     0   511     0  0.000000000E+00  0.000000000E+00 -1.258672972E+02  1.258672972E+02  0.000000000E+00  0.00000E+00  9.000E+00
      21     1     1     2   511   513  9.485845700E+00  2.714314614E+01 -3.464568925E+01  4.502283237E+01  6.743495762E-07  0.00000E+00  9.000E+00
       2     1     1     2   516     0 -1.697921326E+01 -3.175588041E+01 -5.219490664E+01  6.341251298E+01  3.300000131E-01  0.00000E+00  9.000E+00
      21     1     1     2   513   515  7.493367555E+00  4.612734265E+00 -2.754362232E+01  2.891503078E+01  5.840038640E-07  0.00000E+00  9.000E+00
</event>
<event>
      5  10001  2.02673E+08  1.62214E+01 -1.00000E+00  1.74194E-01
      21    -1     0     0   511   514  0.000000000E+00  0.000000000E+00  2.213345637E+01  2.213345637E+01  0.000000000E+00  0.00000E+00  9.000E+00
      -1    -1     0     0     0   516  0.000000000E+00  0.000000000E+00 -1.941036028E+02  1.941036028E+02  0.000000000E+00  0.00000E+00  9.000E+00
      -1     1     1     2     0   514 -1.518706290E+01  4.496227399E+01 -1.381420523E+02  1.460670685E+02  3.300000131E-01  0.00000E+00  9.000E+00
      21     1     1     2   511   512  1.070712366E+01 -2.937185020E+01  1.497108341E+00  3.129839316E+01  1.134838627E-07  0.00000E+00  9.000E+00
      21     1     1     2   512   516  4.479939246E+00 -1.559042379E+01 -3.532520242E+01  3.887159754E+01  6.743495762E-07  0.00000E+00  9.000E+00
</event>
<event>
      5  10001  2.02673E+08  6.97928E+00 -1.00000E+00  2.15664E-01
      21    -1     0     0   513   514  0.000000000E+00  0.000000000E+00  1.114684087E+01  1.114684087E+01  0.000000000E+00  0.00000E+00  9.000E+00
       2    -1     0     0   514     0  0.000000000E+00  0.000000000E+00 -6.600288436E+02  6.600288436E+02  0.000000000E+00  0.00000E+00  9.000E+00
      21     1     1     2   513   511  2.745288840E+01  3.751922191E+01 -5.199622332E+01  6.974926763E+01  2.236564522E-06  0.00000E+00  9.000E+00
       2     1     1     2   512     0 -3.564010202E+01 -3.755762399E+01 -5.830881944E+02  5.853825615E+02  3.300000131E-01  0.00000E+00  9.000E+00
      21     1     1     2   511   512  8.187213621E+00  3.840207680E-02 -1.379758507E+01  1.604385537E+01  2.384185791E-07  0.00000E+00  9.000E+00
</event>
<event>
      5  10001  2.02673E+08  1.28195E+01 -1.00000E+00  1.84010E-01
      21    -1     0     0   515   512  0.000000000E+00  0.000000000E+00  7.504276868E+00  7.504276868E+00  0.000000000E+00  0.00000E+00  9.000E+00
       2    -1     0     0   511     0  0.000000000E+00  0.000000000E+00 -2.140589934E+02  2.140589934E+02  0.000000000E+00  0.00000E+00  9.000E+00
      21     1     1     2   511   512 -3.074734656E+01 -1.828405114E+01 -1.440697431E+02  1.484445914E+02  1.907348633E-06  0.00000E+00  9.000E+00
       2     1     1     2   513     0  1.858928274E+01  3.654646997E+00 -3.165836986E+01  3.689551680E+01  3.300000131E-01  0.00000E+00  9.000E+00
      21     1     1     2   515   513  1.215806382E+01  1.462940414E+01 -3.082660360E+01  3.622316207E+01  3.371747881E-07  0.00000E+00  9.000E+00
</event>
<event>
      5  10001  2.02673E+08  3.70386E+01 -1.00000E+00  1.46911E-01
      21    -1     0     0   514   513  0.000000000E+00  0.000000000E+00  3.704473713E+01  3.704473713E+01  0.000000000E+00  0.00000E+00  9.000E+00
       2    -1     0     0   512     0  0.000000000E+00  0.000000000E+00 -3.063499074E+01  3.063499074E+01  0.000000000E+00  0.00000E+00  9.000E+00
      21     1     1     2   512   513 -1.610766816E+01  1.835052863E+01 -7.449549187E+00  2.552831091E+01  5.264139692E-07  0.00000E+00  9.000E+00
       2     1     1     2   511     0 -4.293510025E-01 -1.565657322E+01 -5.449406677E+00  1.658666815E+01  3.300000131E-01  0.00000E+00  9.000E+00
      21     1     1     2   514   511  1.653701917E+01 -2.693955411E+00  1.930870226E+01  2.556474881E+01  0.000000000E+00  0.00000E+00  9.000E+00
</event>
<event>
      5  10001  2.02673E+08  7.32847E+00 -1.00000E+00  2.12707E-01
      21    -1     0     0   515   511  0.000000000E+00  0.000000000E+00  1.139416594E+01  1.139416594E+01  0.000000000E+00  0.00000E+00  9.000E+00
       1    -1     0     0   513     0  0.000000000E+00  0.000000000E+00 -1.204702290E+02  1.204702290E+02  0.000000000E+00  0.00000E+00  9.000E+00
      -5     1     1     2     0   511  4.492250275E+00  1.349931575E+00 -1.203434498E+01  1.377926300E+01  4.800000191E+00  0.00000E+00  9.000E+00
       1     1     1     2   515     0 -3.517380614E+01 -6.197287675E+00 -4.787350842E+01  5.972926185E+01  3.300000131E-01  0.00000E+00  9.000E+00
       5     1     1     2   513     0  3.068155586E+01  4.847356100E+00 -4.916820969E+01  5.835587012E+01  4.800000191E+00  0.00000E+00  9.000E+00
</event>
<event>
      5  10001  2.02673E+08  1.42961E+01 -1.00000E+00  1.79324E-01
       2    -1     0     0   512     0  0.000000000E+00  0.000000000E+00  1.000751963E+02  1.000751963E+02  0.000000000E+00  0.00000E+00  9.000E+00
       2    -1     0     0   511     0  0.000000000E+00  0.000000000E+00 -1.147892204E+01  1.147892204E+01  0.000000000E+00  0.00000E+00  9.000E+00
       2     1     1     2   512     0  2.640175392E+01  7.883040575E+00  2.081960824E+01  3.453635658E+01  3.300000131E-01  0.00000E+00  9.000E+00
       2     1     1     2   514     0 -2.679815609E+01  1.803517302E+00  5.101330595E+01  5.765292819E+01  3.300000131E-01  0.00000E+00  9.000E+00
      21     1     1     2   511   514  3.964021694E-01 -9.686557877E+00  1.676336010E+01  1.936483359E+01  0.000000000E+00  0.00000E+00  9.000E+00
</event>
<event>
      5  10001  2.02673E+08  1.13575E+01 -1.00000E+00  1.89522E-01
      21    -1     0     0   514   511  0.000000000E+00  0.000000000E+00  8.592159236E+00  8.592159236E+00  0.000000000E+00  0.00000E+00  9.000E+00
      21    -1     0     0   513   514  0.000000000E+00  0.000000000E+00 -1.321695845E+02  1.321695845E+02  0.000000000E+00  0.00000E+00  9.000E+00
      -5     1     1     2     0   512  2.186893153E+01  5.775355700E+00 -4.210404639E+01  4.803535807E+01  4.800000191E+00  0.00000E+00  9.000E+00
       5     1     1     2   513     0 -2.825192933E+01 -9.935791634E+00 -7.914766048E+01  8.476015354E+01  4.800000191E+00  0.00000E+00  9.000E+00
      21     1     1     2   512   511  6.382997795E+00  4.160435934E+00 -2.325718358E+00  7.966232101E+00  2.384185791E-07  0.00000E+00  9.000E+00
</event>
<event>
      5  10001  2.02673E+08  4.40598E+01 -1.00000E+00  1.42253E-01
      21    -1     0     0   515   513  0.000000000E+00  0.000000000E+00  9.737865431E+00  9.737865431E+00  0.000000000E+00  0.00000E+00  9.000E+00
      21    -1     0     0   512   511  0.000000000E+00  0.000000000E+00 -1.830610617E+02  1.830610617E+02  0.000000000E+00  0.00000E+00  9.000E+00
      21     1     1     2   515   511 -3.971703840E+00  2.871513423E+01 -1.136679894E+02  1.173062026E+02  1.348699152E-06  0.00000E+00  9.000E+00
      21     1     1     2   512   514 -1.511568586E+01 -7.012311441E+00 -1.575109076E+01  2.292931161E+01  4.129530925E-07  0.00000E+00  9.000E+00
      21     1     1     2   514   513  1.908738970E+01 -2.170282279E+01 -4.390411615E+01  5.256341291E+01  4.768371582E-07  0.00000E+00  9.000E+00
</event>
<event>
      5  10001  2.02673E+08  4.09838E+01 -1.00000E+00  1.44158E-01
      21    -1     0     0   516   511  0.000000000E+00  0.000000000E+00  2.644509695E+02  2.644509695E+02  0.000000000E+00  0.00000E+00  9.000E+00
      21    -1     0     0   517   513  0.000000000E+00  0.000000000E+00 -3.790554850E+00  3.790554850E+00  0.000000000E+00  0.00000E+00  9.000E+00
      21     1     1     2   516   513  1.341329136E+01 -1.850552417E+01  1.246865306E+02  1.267639607E+02  1.348699152E-06  0.00000E+00  9.000E+00
      21     1     1     2   512   511 -2.996672026E+00  6.805224142E+00  1.152970781E+02  1.155366061E+02  1.907348633E-06  0.00000E+00  9.000E+00
      21     1     1     2   517   512 -1.041661934E+01  1.170030002E+01  2.067680596E+01  2.594095765E+01  2.384185791E-07  0.00000E+00  9.000E+00
</event>
<event>
      5  10001  2.02673E+08  1.55157E+01 -1.00000E+00  1.75965E-01
       2    -1     0     0   513     0  0.000000000E+00  0.000000000E+00  8.711182582E+01  8.711182582E+01  0.000000000E+00  0.00000E+00  9.000E+00
      -2    -1     0     0     0   514  0.000000000E+00  0.000000000E+00 -1.922418054E+01  1.922418054E+01  0.000000000E+00  0.00000E+00  9.000E+00
      -3     1     1     2     0   514  2.803475651E+01 -2.590468924E+01  1.895797635E+01  4.262224025E+01  5.000000000E-01  0.00000E+00  9.000E+00
       3     1     1     2   511     0 -1.266645900E+01  9.303397934E+00  3.131896765E+01  3.504454496E+01  5.000000000E-01  0.00000E+00  9.000E+00
      21     1     1     2   513   511 -1.536829750E+01  1.660129131E+01  1.761070128E+01  2.866922114E+01  4.768371582E-07  0.00000E+00  9.000E+00
</event>
<event>
      5  10001  2.02673E+08  1.30591E+01 -1.00000E+00  1.83196E-01
      21    -1     0     0   512   515  0.000000000E+00  0.000000000E+00  1.036803937E+02  1.036803937E+02  0.000000000E+00  0.00000E+00  9.000E+00
      -1    -1     0     0     0   512  0.000000000E+00  0.000000000E+00 -1.031202536E+01  1.031202536E+01  0.000000000E+00  0.00000E+00  9.000E+00
      -1     1     1     2     0   513 -2.522100406E+00  2.578434498E+01  2.119489163E+01  3.347425530E+01  3.300000131E-01  0.00000E+00  9.000E+00
      21     1     1     2   513   514  8.883299560E+00 -2.307895444E+01  6.819961356E+01  7.254473405E+01  1.651812370E-06  0.00000E+00  9.000E+00
      21     1     1     2   514   515 -6.361199154E+00 -2.705390547E+00  3.973863108E+00  7.973429670E+00  4.214684851E-08  0.00000E+00  9.000E+00
</event>
<event>
      5  10001  2.02673E+08  5.31093E+01 -1.00000E+00  1.37569E-01
      21    -1     0     0   511   515  0.000000000E+00  0.000000000E+00  4.378528088E+01  4.378528088E+01  0.000000000E+00  0.00000E+00  9.000E+00
      -3    -1     0     0     0   511  0.000000000E+00  0.000000000E+00 -3.542953789E+02  3.542953789E+02  0.000000000E+00  0.00000E+00  9.000E+00
      -3     1     1     2     0   512  2.912566933E+01  2.188649897E+01 -2.868173123E+02  2.891223687E+02  5.000000000E-01  0.00000E+00  9.000E+00
      21     1     1     2   512   513 -2.696706995E+01 -5.356700840E+01  1.202559175E+01  6.116585737E+01  1.702649219E-06  0.00000E+00  9.000E+00
      21     1     1     2   513   515 -2.158599375E+00  3.168050943E+01 -3.571837742E+01  4.779243365E+01  4.768371582E-07  0.00000E+00  9.000E+00
</event>
<event>
      5  10001  2.02673E+08  5.36703E+00 -1.00000E+00  2.33180E-01
      21    -1     0     0   513   514  0.000000000E+00  0.000000000E+00  2.067337442E+01  2.067337442E+01  0.000000000E+00  0.00000E+00  9.000E+00
       2    -1     0     0   512     0  0.000000000E+00  0.000000000E+00 -2.118203182E+02  2.118203182E+02  0.000000000E+00  0.00000E+00  9.000E+00
      21     1     1     2   512   514  4.936277273E+01  1.076758076E+00 -2.063085798E+01  5.351144776E+01  7.907449699E-07  0.00000E+00  9.000E+00
       2     1     1     2   511     0 -4.945385932E+01 -4.639395830E+00 -1.657385314E+02  1.730219000E+02  3.300000131E-01  0.00000E+00  9.000E+00
      21     1     1     2   513   511  9.108659056E-02  3.562637754E+00 -4.777554344E+00  5.960344793E+00  1.032382731E-07  0.00000E+00  9.000E+00
</event>
<event>
      5  10001  2.02673E+08  5.14926E+01 -1.00000E+00  1.38322E-01
      21    -1     0     0   511   512  0.000000000E+00  0.000000000E+00  1.149043583E+01  1.149043583E+01  0.000000000E+00  0.00000E+00  9.000E+00
       2    -1     0     0   512     0  0.000000000E+00  0.000000000E+00 -2.428158907E+02  2.428158907E+02  0.000000000E+00  0.00000E+00  9.000E+00
      21     1     1     2   511   515 -2.626100244E+01 -1.010970041E+01 -1.746802608E+01  3.312066163E+01  7.152557373E-07  0.00000E+00  9.000E+00
       2     1     1     2   514     0  2.112584122E+01 -1.798013088E+01 -9.696032501E+01  1.008513748E+02  3.300000131E-01  0.00000E+00  9.000E+00
      21     1     1     2   515   514  5.135161223E+00  2.808983129E+01 -1.168971038E+02  1.203342901E+02  1.907348633E-06  0.00000E+00  9.000E+00
</event>
<event>
      5  10001  2.02673E+08  1.81716E+01 -1.00000E+00  1.69836E-01
      21    -1     0     0   513   512  0.000000000E+00  0.000000000E+00  1.915270828E+00  1.915270828E+00  0.000000000E+00  0.00000E+00  9.000E+00
       2    -1     0     0   514     0  0.000000000E+00  0.000000000E+00 -1.132664121E+03  1.132664121E+03  0.000000000E+00  0.00000E+00  9.000E+00
      21     1     1     2   514   511 -9.459855972E+00 -2.392988727E+01 -2.328947449E+02  2.343119514E+02  2.697398305E-06  0.00000E+00  9.000E+00
       2     1     1     2   513     0  1.678622357E+01  3.096742681E+01 -8.683342020E+02  8.690484187E+02  3.300000131E-01  0.00000E+00  9.000E+00
      21     1     1     2   511   512 -7.326367595E+00 -7.037539539E+00 -2.951990317E+01  3.121902158E+01  1.617033478E-06  0.00000E+00  9.000E+00
</event>
<event>
      5  10001  2.02673E+08  9.60163E+00 -1.00000E+00  1.97761E-01
      21    -1     0     0   515   514  0.000000000E+00  0.000000000E+00  2.991743279E+01  2.991743279E+01  0.000000000E+00  0.00000E+00  9.000E+00
      21    -1     0     0   511   512  0.000000000E+00  0.000000000E+00 -5.020778323E+01  5.020778323E+01  0.000000000E+00  0.00000E+00  9.000E+00
      21     1     1     2   515   512 -2.330401907E+01 -1.969179519E+01  1.193289483E+01  3.276031260E+01  2.920019320E-07  0.00000E+00  9.000E+00
      21     1     1     2   513   514  1.356544256E+01  2.033045246E+01 -2.650481437E+01  3.605348408E+01  0.000000000E+00  0.00000E+00  9.000E+00
      21     1     1     2   511   513  9.738576506E+00 -6.386572663E-01 -5.718430902E+00  1.131141934E+01  1.460009660E-07  0.00000E+00  9.000E+00
</event>
<event>
      5  10001  2.02673E+08  2.63714E+01 -1.00000E+00  1.56996E-01
      21    -1     0     0   511   513  0.000000000E+00  0.000000000E+00  1.086371829E+01  1.086371829E+01  0.000000000E+00  0.00000E+00  9.000E+00
       2    -1     0     0   512     0  0.000000000E+00  0.000000000E+00 -5.056160472E+02  5.056160472E+02  0.000000000E+00  0.00000E+00  9.000E+00
      21     1     1     2   514   513 -2.907137834E+01 -3.333149453E+01 -4.867918300E+01  6.577078701E+01  9.536743164E-07  0.00000E+00  9.000E+00
       2     1     1     2   511     0  3.634420698E+01  7.983038307E+00 -2.231497426E+02  2.262311800E+02  3.300000131E-01  0.00000E+00  9.000E+00
      21     1     1     2   512   514 -7.272828636E+00  2.534845623E+01 -2.229234033E+02  2.244777985E+02  0.000000000E+00  0.00000E+00  9.000E+00
</event>
<event>
      5  10001  2.02673E+08  4.18135E+01 -1.00000E+00  1.43625E-01
      21    -1     0     0   512   515  0.000000000E+00  0.000000000E+00  1.941871290E+01  1.941871290E+01  0.000000000E+00  0.00000E+00  9.000E+00
      -3    -1     0     0     0   514  0.000000000E+00  0.000000000E+00 -4.461786312E+02  4.461786312E+02  0.000000000E+00  0.00000E+00  9.000E+00
      -3     1     1     2     0   511  5.392680368E+01 -3.620432839E+01 -3.111671397E+02  3.178743342E+02  5.000000000E-01  0.00000E+00  9.000E+00
      21     1     1     2   512   514 -6.649465476E+01  3.134085001E+01 -1.116592243E+02  1.336845929E+02  0.000000000E+00  0.00000E+00  9.000E+00
      21     1     1     2   511   515  1.256785108E+01  4.863478380E+00 -3.933554290E+00  1.403841700E+01  4.359703910E-07  0.00000E+00  9.000E+00
</event>
<event>
      5  10001  2.02673E+08  4.48923E+01 -1.00000E+00  1.41769E-01
      21    -1     0     0   513   516  0.000000000E+00  0.000000000E+00  2.026238898E+01  2.026238898E+01  0.000000000E+00  0.00000E+00  9.000E+00
      21    -1     0     0   511   515  0.000000000E+00  0.000000000E+00 -1.078669443E+02  1.078669443E+02  0.000000000E+00  0.00000E+00  9.000E+00
      21     1     1     2   513   515 -4.155841935E+00 -1.847203381E+01  4.324257082E-01  1.893869180E+01  8.423111206E-07  0.00000E+00  9.000E+00
      21     1     1     2   512   516  1.031819868E+00  1.538892480E+01 -9.752473624E+01  9.873681095E+01  1.348699152E-06  0.00000E+00  9.000E+00
      21     1     1     2   511   512  3.124022067E+00  3.083109004E+00  9.487755182E+00  1.045383056E+01  4.768371582E-07  0.00000E+00  9.000E+00
</event>
<event>
      5  10001  2.02673E+08  1.08083E+01 -1.00000E+00  1.91878E-01
      21    -1     0     0   514   512  0.000000000E+00  0.000000000E+00  9.344577383E+00  9.344577383E+00  0.000000000E+00  0.00000E+00  9.000E+00
      21    -1     0     0   511   513  0.000000000E+00  0.000000000E+00 -5.481700329E+02  5.481700329E+02  0.000000000E+00  0.00000E+00  9.000E+00
      21     1     1     2   514   517  3.150796205E+01 -2.776647954E+00 -5.231675312E+01  6.113512986E+01  6.743495762E-07  0.00000E+00  9.000E+00
      21     1     1     2   511   512 -2.785012091E+01  1.294712250E+01 -4.355766194E+01  5.329659585E+01  9.536743164E-07  0.00000E+00  9.000E+00
      21     1     1     2   517   513 -3.657841141E+00 -1.017047455E+01 -4.429510404E+02  4.430828845E+02  0.000000000E+00  0.00000E+00  9.000E+00
</event>
<event>
      5  10001  2.02673E+08  2.57396E+01 -1.00000E+00  1.57771E-01
      21    -1     0     0   515   511  0.000000000E+00  0.000000000E+00  4.888889331E+01  4.888889331E+01  0.000000000E+00  0.00000E+00  9.000E+00
      21    -1     0     0   517   516  0.000000000E+00  0.000000000E+00 -2.875089065E+01  2.875089065E+01  0.000000000E+00  0.00000E+00  9.000E+00
      21     1     1     2   515   516  4.839904978E+00  3.032698089E+01 -2.585046710E+00  3.081935945E+01  4.470348358E-07  0.00000E+00  9.000E+00
      21     1     1     2   512   511 -1.342359852E+01 -1.222698127E+01  1.929844858E+01  2.649758830E+01  3.371747881E-07  0.00000E+00  9.000E+00
      21     1     1     2   517   512  8.583693544E+00 -1.809999962E+01  3.424600799E+00  2.032283621E+01  2.980232239E-07  0.00000E+00  9.000E+00
</event>
<event>
      5  10001  2.02673E+08  1.86642E+01 -1.00000E+00  1.68842E-01
      21    -1     0     0   514   511  0.000000000E+00  0.000000000E+00  4.386561692E+01  4.386561692E+01  0.000000000E+00  0.00000E+00  9.000E+00
       1    -1     0     0   511     0  0.000000000E+00  0.000000000E+00 -4.413519181E+02  4.413519181E+02  0.000000000E+00  0.00000E+00  9.000E+00
      21     1     1     2   512   513 -5.921046977E+00  2.875310100E+01 -1.990559682E+01  3.546875244E+01  9.830249847E-07  0.00000E+00  9.000E+00
       1     1     1     2   513     0  2.458146177E+01 -2.912606458E+01 -4.103075048E+02  4.120739415E+02  3.300000131E-01  0.00000E+00  9.000E+00
      21     1     1     2   514   512 -1.866041479E+01  3.729635791E-01  3.272680044E+01  3.767484106E+01  8.259061849E-07  0.00000E+00  9.000E+00
</event>
<event>
      5  10001  2.02673E+08  1.64102E+01 -1.00000E+00  1.73739E-01
      -2    -1     0     0     0   512  0.000000000E+00  0.000000000E+00  7.729452392E+00  7.729452392E+00  0.000000000E+00  0.00000E+00  9.000E+00
      -1    -1     0     0     0   514  0.000000000E+00  0.000000000E+00 -1.486358231E+02  1.486358231E+02  0.000000000E+00  0.00000E+00  9.000E+00
      -2     1     1     2     0   514 -2.698446567E+01  1.178634651E+00 -3.192110075E+01  4.181645777E+01  3.300000131E-01  0.00000E+00  9.000E+00
      -1     1     1     2     0   511  2.177719991E+01 -1.025920389E+01 -6.444635339E+01  6.879635939E+01  3.300000131E-01  0.00000E+00  9.000E+00
      21     1     1     2   511   512  5.207265754E+00  9.080569244E+00 -4.453891653E+01  4.575245829E+01  0.000000000E+00  0.00000E+00  9.000E+00
</event>
<event>
      5  10001  2.02673E+08  3.77963E+00 -1.00000E+00  2.69294E-01
      21    -1     0     0   511   512  0.000000000E+00  0.000000000E+00  4.326079436E+01  4.326079436E+01  0.000000000E+00  0.00000E+00  9.000E+00
      -1    -1     0     0     0   514  0.000000000E+00  0.000000000E+00 -1.225366998E+02  1.225366998E+02  0.000000000E+00  0.00000E+00  9.000E+00
      -1     1     1     2     0   512  1.557696790E+01  2.579235417E+01 -8.705408220E+01  9.212171074E+01  3.300000131E-01  0.00000E+00  9.000E+00
      21     1     1     2   511   513 -1.796609509E+01 -2.872108455E+01  3.352006195E+01  4.765790410E+01  1.168007728E-06  0.00000E+00  9.000E+00
      21     1     1     2   513   514  2.389127190E+00  2.928730373E+00 -2.574188522E+01  2.601787933E+01  0.000000000E+00  0.00000E+00  9.000E+00
</event>
<event>
      5  10001  2.02673E+08  1.54169E+01 -1.00000E+00  1.76222E-01
      21    -1     0     0   513   512  0.000000000E+00  0.000000000E+00  8.487973691E+01  8.487973691E+01  0.000000000E+00  0.00000E+00  9.000E+00
       1    -1     0     0   511     0  0.000000000E+00  0.000000000E+00 -4.113873522E+01  4.113873522E+01  0.000000000E+00  0.00000E+00  9.000E+00
      21     1     1     2   511   515 -3.447752317E+01  5.885598390E+00 -1.661160301E+01  3.872060468E+01  7.152557373E-07  0.00000E+00  9.000E+00
       1     1     1     2   513     0  2.638163030E+01 -1.900543891E+01  9.083715172E+00  3.376121898E+01  3.300000131E-01  0.00000E+00  9.000E+00
      21     1     1     2   515   512  8.095892870E+00  1.311984052E+01  5.126888952E+01  5.353664847E+01  6.743495762E-07  0.00000E+00  9.000E+00
</event>
<event>
      5  10001  2.02673E+08  9.91093E+00 -1.00000E+00  1.96149E-01
      21    -1     0     0   515   511  0.000000000E+00  0.000000000E+00  1.458885338E+00  1.458885338E+00  0.000000000E+00  0.00000E+00  9.000E+00
       2    -1     0     0   511     0  0.000000000E+00  0.000000000E+00 -6.977613429E+02  6.977613429E+02  0.000000000E+00  0.00000E+00  9.000E+00
      21     1     1     2   513   514  1.445081138E+01  4.530165200E-01 -1.539994122E+02  1.546765986E+02  1.907348633E-06  0.00000E+00  9.000E+00
       2     1     1     2   514     0 -2.942500830E+01 -1.002784723E+01 -3.802690626E+02  3.815377540E+02  3.300000131E-01  0.00000E+00  9.000E+00
      21     1     1     2   515   513  1.497419692E+01  9.574830714E+00 -1.620339827E+02  1.630058757E+02  2.697398305E-06  0.00000E+00  9.000E+00
</event>
<event>
      5  10001  2.02673E+08  1.79162E+01 -1.00000E+00  1.70367E-01
      21    -1     0     0   514   513  0.000000000E+00  0.000000000E+00  3.463170348E+02  3.463170348E+02  0.000000000E+00  0.00000E+00  9.000E+00
      21    -1     0     0   511   512  0.000000000E+00  0.000000000E+00 -6.550816018E+01  6.550816018E+01  0.000000000E+00  0.00000E+00  9.000E+00
      21     1     1     2   516   513  3.796538307E+01 -1.497247901E+01  1.956397864E+02  1.998511233E+02  4.672030912E-06  0.00000E+00  9.000E+00
      21     1     1     2   511   516 -2.441814741E+01  2.669699699E+01 -5.763539701E+01  6.805008861E+01  1.907348633E-06  0.00000E+00  9.000E+00
      21     1     1     2   514   512 -1.354723566E+01 -1.172451798E+01  1.428044853E+02  1.439239832E+02  2.697398305E-06  0.00000E+00  9.000E+00
</event>
<event>
      5  10001  2.02673E+08  7.44089E+00 -1.00000E+00  2.11803E-01
      21    -1     0     0   515   511  0.000000000E+00  0.000000000E+00  2.788552441E+00  2.788552441E+00  0.000000000E+00  0.00000E+00  9.000E+00
       1    -1     0     0   513     0  0.000000000E+00  0.000000000E+00 -7.681785353E+02  7.681785353E+02  0.000000000E+00  0.00000E+00  9.000E+00
      21     1     1     2   513   511 -4.049872737E+01 -2.534111916E+00 -2.102066516E+02  2.140873771E+02  0.000000000E+00  0.00000E+00  9.000E+00
       1     1     1     2   516     0  3.197669340E+01  4.453046055E+00 -4.966237755E+02  4.976722032E+02  3.300000131E-01  0.00000E+00  9.000E+00
      21     1     1     2   515   516  8.522033974E+00 -1.918934139E+00 -5.855955575E+01  5.920750747E+01  6.743495762E-07  0.00000E+00  9.000E+00
</event>
<event>
      5  10001  2.02673E+08  8.30986E+00 -1.00000E+00  2.05471E-01
       1    -1     0     0   511     0  0.000000000E+00  0.000000000E+00  1.555344804E+02  1.555344804E+02  0.000000000E+00  0.00000E+00  9.000E+00
       2    -1     0     0   512     0  0.000000000E+00  0.000000000E+00 -3.207184989E+02  3.207184989E+02  0.000000000E+00  0.00000E+00  9.000E+00
       1     1     1     2   512     0 -7.892632033E+00 -3.003447491E+01  1.482081657E+02  1.514269877E+02  3.300000131E-01  0.00000E+00  9.000E+00
       2     1     1     2   513     0  1.556305363E+01  3.323108026E+01 -3.143287198E+02  3.164635308E+02  3.300000131E-01  0.00000E+00  9.000E+00
      21     1     1     2   511   513 -7.670421597E+00 -3.196605357E+00  9.365355790E-01  8.362460892E+00  1.043081284E-07  0.00000E+00  9.000E+00
</event>
<event>
      5  10001  2.02673E+08  2.20684E+01 -1.00000E+00  1.62878E-01
      21    -1     0     0   514   513  0.000000000E+00  0.000000000E+00  6.243657878E+02  6.243657878E+02  0.000000000E+00  0.00000E+00  9.000E+00
      21    -1     0     0   515   514  0.000000000E+00  0.000000000E+00 -3.506832587E+01  3.506832587E+01  0.000000000E+00  0.00000E+00  9.000E+00
      21     1     1     2   515   512 -1.146453671E+01 -4.695594893E+01 -1.619296558E+01  5.097557137E+01  3.388564683E-06  0.00000E+00  9.000E+00
      21     1     1     2   512   516 -3.834074337E+00  4.426578329E+01  4.362972268E+02  4.385537935E+02  0.000000000E+00  0.00000E+00  9.000E+00
      21     1     1     2   516   513  1.529861105E+01  2.690165638E+00  1.691932007E+02  1.699047488E+02  0.000000000E+00  0.00000E+00  9.000E+00
</event>
<event>
      5  10001  2.02673E+08  6.84848E+00 -1.00000E+00  2.16833E-01
      21    -1     0     0   511   512  0.000000000E+00  0.000000000E+00  4.319054943E+01  4.319054943E+01  0.000000000E+00  0.00000E+00  9.000E+00
      21    -1     0     0   515   514  0.000000000E+00  0.000000000E+00 -5.066770265E+02  5.066770265E+02  0.000000000E+00  0.00000E+00  9.000E+00
      21     1     1     2   511   513 -1.577963680E+00  3.193714296E+01 -8.927154199E+00  3.319887275E+01  6.529361695E-07  0.00000E+00  9.000E+00
      21     1     1     2   515   512  7.657839326E+00 -2.878488469E+01  2.388220751E+01  3.817816031E+01  0.000000000E+00  0.00000E+00  9.000E+00
      21     1     1     2   513   514 -6.079875647E+00 -3.152258273E+00 -4.784415304E+02  4.784905429E+02  5.394796609E-06  0.00000E+00  9.000E+00
</event>
<event>
      5  10001  2.02673E+08  2.34300E+01 -1.00000E+00  1.60851E-01
      21    -1     0     0   516   511  0.000000000E+00  0.000000000E+00  6.540306457E+01  6.540306457E+01  0.000000000E+00  0.00000E+00  9.000E+00
      21    -1     0     0   517   516  0.000000000E+00  0.000000000E+00 -9.911722303E+01  9.911722303E+01  0.000000000E+00  0.00000E+00  9.000E+00
      21     1     1     2   517   514 -1.093359119E+01  4.872812419E+01 -7.160839630E+01  8.730255394E+01  1.348699152E-06  0.00000E+00  9.000E+00
      21     1     1     2   514   513  2.057048420E+01 -2.737174037E+01  4.118369786E+01  5.355794956E+01  4.768371582E-07  0.00000E+00  9.000E+00
      21     1     1     2   513   511 -9.636893008E+00 -2.135638381E+01 -3.289460025E+00  2.365978410E+01  3.998401125E-07  0.00000E+00  9.000E+00
</event>
<event>
      5  10001  2.02673E+08  2.30769E+01 -1.00000E+00  1.61360E-01
      21    -1     0     0   512   514  0.000000000E+00  0.000000000E+00  1.330753808E+01  1.330753808E+01  0.000000000E+00  0.00000E+00  9.000E+00
      21    -1     0     0   515   511  0.000000000E+00  0.000000000E+00 -1.347185493E+02  1.347185493E+02  0.000000000E+00  0.00000E+00  9.000E+00
      21     1     1     2   512   511 -2.932425249E+01 -1.023519042E+01 -5.969924960E+01  6.729540333E+01  1.168007728E-06  0.00000E+00  9.000E+00
      21     1     1     2   515   516  3.968023078E+01  3.813091521E+00 -4.713291946E+01  6.172983459E+01  9.536743164E-07  0.00000E+00  9.000E+00
      21     1     1     2   516   514 -1.035597829E+01  6.422098896E+00 -1.457884211E+01  1.900084940E+01  0.000000000E+00  0.00000E+00  9.000E+00
</event>
<event>
      5  10001  2.02673E+08  4.90606E+01 -1.00000E+00  1.39518E-01
      21    -1     0     0   513   516  0.000000000E+00  0.000000000E+00  3.289397407E+01  3.289397407E+01  0.000000000E+00  0.00000E+00  9.000E+00
      21    -1     0     0   514   513  0.000000000E+00  0.000000000E+00 -6.916684555E+01  6.916684555E+01  0.000000000E+00  0.00000E+00  9.000E+00
      21     1     1     2   515   516  1.498725087E+00 -2.768443971E+01 -2.274342661E+00  2.781810586E+01  6.854534149E-07  0.00000E+00  9.000E+00
      21     1     1     2   511   515  2.708578124E+00  2.105294200E+01 -5.114958043E+01  5.537907854E+01  6.743495762E-07  0.00000E+00  9.000E+00
      21     1     1     2   514   511 -4.207303211E+00  6.631497710E+00  1.715105161E+01  1.886363522E+01  2.384185791E-07  0.00000E+00  9.000E+00
</event>
<event>
      5  10001  2.02673E+08  4.98783E+01 -1.00000E+00  1.39107E-01
      21    -1     0     0   512   513  0.000000000E+00  0.000000000E+00  5.893855159E+02  5.893855159E+02  0.000000000E+00  0.00000E+00  9.000E+00
      21    -1     0     0   514   517  0.000000000E+00  0.000000000E+00 -1.592504096E+02  1.592504096E+02  0.000000000E+00  0.00000E+00  9.000E+00
      21     1     1     2   512   517 -1.698963723E+01 -7.854197758E+01  6.845375977E+01  1.055623382E+02  2.523185073E-06  0.00000E+00  9.000E+00
      21     1     1     2   514   511  6.685528789E+01  7.966403306E+01 -1.200121362E+02  1.588045986E+02  3.015782986E-06  0.00000E+00  9.000E+00
      21     1     1     2   511   513 -4.986565067E+01 -1.122055481E+00  4.816934827E+02  4.842689887E+02  0.000000000E+00  0.00000E+00  9.000E+00
</event>
<event>
      5  10001  2.02673E+08  1.33228E+01 -1.00000E+00  1.82326E-01
      -1    -1     0     0     0   513  0.000000000E+00  0.000000000E+00  8.311571687E+02  8.311571687E+02  0.000000000E+00  0.00000E+00  9.000E+00
      21    -1     0     0   511   512  0.000000000E+00  0.000000000E+00 -3.887191751E+00  3.887191751E+00  0.000000000E+00  0.00000E+00  9.000E+00
      -1     1     1     2     0   512 -1.682983444E+01 -2.993685792E+01  7.361815410E+02  7.369822447E+02  3.300000131E-01  0.00000E+00  9.000E+00
      21     1     1     2   514   513  3.524643646E+00  1.731220079E+01  5.109992377E+01  5.406789823E+01  9.536743164E-07  0.00000E+00  9.000E+00
      21     1     1     2   511   514  1.330519080E+01  1.262465713E+01  3.998851219E+01  4.399421754E+01  6.743495762E-07  0.00000E+00  9.000E+00
</event>
<event>
      5  10001  2.02673E+08  3.04398E+01 -1.00000E+00  1.52567E-01
       2    -1     0     0   511     0  0.000000000E+00  0.000000000E+00  4.755428543E+01  4.755428543E+01  0.000000000E+00  0.00000E+00  9.000E+00
      21    -1     0     0   515   514  0.000000000E+00  0.000000000E+00 -2.638906998E+01  2.638906998E+01  0.000000000E+00  0.00000E+00  9.000E+00
      21     1     1     2   511   514  1.611129015E+01 -2.100454265E+01  2.622187211E+00  2.660151026E+01  5.004660971E-07  0.00000E+00  9.000E+00
      21     1     1     2   515   512 -8.186393218E+00  1.989340841E+01 -5.328890420E+00  2.216217058E+01  4.842304232E-07  0.00000E+00  9.000E+00
       2     1     1     2   512     0 -7.924896933E+00  1.111134249E+00  2.387191866E+01  2.517967457E+01  3.300000131E-01  0.00000E+00  9.000E+00
</event>
<event>
      5  10001  2.02673E+08  3.85909E+01 -1.00000E+00  1.45781E-01
      21    -1     0     0   513   514  0.000000000E+00  0.000000000E+00  5.656541781E+00  5.656541781E+00  0.000000000E+00  0.00000E+00  9.000E+00
      21    -1     0     0   517   516  0.000000000E+00  0.000000000E+00 -7.403504104E+02  7.403504104E+02  0.000000000E+00  0.00000E+00  9.000E+00
      21     1     1     2   513   516 -2.530472674E+01 -2.160459640E+01 -5.524200201E+01  6.448849949E+01  1.348699152E-06  0.00000E+00  9.000E+00
      21     1     1     2   517   511  4.991038730E+00  3.009868361E+01 -3.472571123E+02  3.485948125E+02  3.814697266E-06  0.00000E+00  9.000E+00
      21     1     1     2   511   514  2.031368801E+01 -8.494087212E+00 -3.321947542E+02  3.329236402E+02  6.607249480E-06  0.00000E+00  9.000E+00
</event>
<event>
      5  10001  2.02673E+08  1.68714E+01 -1.00000E+00  1.72660E-01
       1    -1     0     0   513     0  0.000000000E+00  0.000000000E+00  2.532975765E+01  2.532975765E+01  0.000000000E+00  0.00000E+00  9.000E+00
      21    -1     0     0   512   513  0.000000000E+00  0.000000000E+00 -5.401744059E+01  5.401744059E+01  0.000000000E+00  0.00000E+00  9.000E+00
      21     1     1     2   512   511 -2.086210058E+01 -2.073594282E+01 -3.629117379E+01  4.671462148E+01  6.743495762E-07  0.00000E+00  9.000E+00
      21     1     1     2   511   515  5.367353643E+00  1.091461403E+01 -1.311171176E+00  1.223341548E+01  6.664001875E-08  0.00000E+00  9.000E+00
       1     1     1     2   515     0  1.549474694E+01  9.821328796E+00  8.914662029E+00  2.039916128E+01  3.300000131E-01  0.00000E+00  9.000E+00
</event>
<event>
      5  10001  2.02673E+08  3.01762E+01 -1.00000E+00  1.52828E-01
      21    -1     0     0   514   512  0.000000000E+00  0.000000000E+00  1.228314445E+02  1.228314445E+02  0.000000000E+00  0.00000E+00  9.000E+00
      21    -1     0     0   511   514  0.000000000E+00  0.000000000E+00 -5.749284504E+01  5.749284504E+01  0.000000000E+00  0.00000E+00  9.000E+00
      -4     1     1     2     0   513 -1.044604350E+01  3.552298863E+01 -4.531235905E+00  3.733342530E+01  1.500000000E+00  0.00000E+00  9.000E+00
      21     1     1     2   513   512  4.059211396E+01 -3.439436494E+01  9.149739272E+01  1.058416975E+02  0.000000000E+00  0.00000E+00  9.000E+00
       4     1     1     2   511     0 -3.014607046E+01 -1.128623695E+00 -2.162755732E+01  3.714916676E+01  1.500000000E+00  0.00000E+00  9.000E+00
</event>
<event>
      5  10001  2.02673E+08  3.11480E+01 -1.00000E+00  1.51881E-01
      21    -1     0     0   511   513  0.000000000E+00  0.000000000E+00  1.856129835E+01  1.856129835E+01  0.000000000E+00  0.00000E+00  9.000E+00
      -1    -1     0     0     0   515  0.000000000E+00  0.000000000E+00 -3.105861833E+02  3.105861833E+02  0.000000000E+00  0.00000E+00  9.000E+00
      -1     1     1     2     0   512  1.084996786E+01 -2.945444761E+01 -1.411230446E+02  1.445721581E+02  3.300000131E-01  0.00000E+00  9.000E+00
      21     1     1     2   511   515  1.797370084E+01  4.126013946E+01 -1.463292772E+02  1.530937961E+02  1.907348633E-06  0.00000E+00  9.000E+00
      21     1     1     2   512   513 -2.882366870E+01 -1.180569186E+01 -4.572563162E+00  3.148152746E+01  7.177349674E-07  0.00000E+00  9.000E+00
</event>
<event>
      5  10001  2.02673E+08  2.28726E+01 -1.00000E+00  1.61660E-01
      21    -1     0     0   512   513  0.000000000E+00  0.000000000E+00  3.320842453E+02  3.320842453E+02  0.000000000E+00  0.00000E+00  9.000E+00
       2    -1     0     0   513     0  0.000000000E+00  0.000000000E+00 -7.585293075E+01  7.585293075E+01  0.000000000E+00  0.00000E+00  9.000E+00
      21     1     1     2   511   514 -2.341901611E+01  3.593971298E+00  2.372427297E+02  2.384229010E+02  0.000000000E+00  0.00000E+00  9.000E+00
       2     1     1     2   514     0  3.041303177E+01 -2.696401356E+01 -6.797146381E+01  7.919747042E+01  3.300000131E-01  0.00000E+00  9.000E+00
      21     1     1     2   512   511 -6.994015663E+00  2.337004226E+01  8.696004867E+01  9.031680461E+01  2.132480600E-06  0.00000E+00  9.000E+00
</event>
<event>
      5  10001  2.02673E+08  1.33307E+01 -1.00000E+00  1.82300E-01
      21    -1     0     0   515   511  0.000000000E+00  0.000000000E+00  1.406301859E+02  1.406301859E+02  0.000000000E+00  0.00000E+00  9.000E+00
      21    -1     0     0   513   515  0.000000000E+00  0.000000000E+00 -3.111845867E+01  3.111845867E+01  0.000000000E+00  0.00000E+00  9.000E+00
      21     1     1     2   516   511 -3.402321880E+01  1.750594113E+01  1.131617947E+02  1.194555531E+02  1.907348633E-06  0.00000E+00  9.000E+00
      21     1     1     2   514   516  2.878805481E+01 -2.443342376E+01 -1.261678167E+01  3.981114763E+01  3.371747881E-07  0.00000E+00  9.000E+00
      21     1     1     2   513   514  5.235163997E+00  6.927482622E+00  8.966714168E+00  1.248194378E+01  2.064765462E-07  0.00000E+00  9.000E+00
</event>
<event>
      5  10001  2.02673E+08  7.21783E+01 -1.00000E+00  1.30525E-01
       1    -1     0     0   515     0  0.000000000E+00  0.000000000E+00  2.555148184E+02  2.555148184E+02  0.000000000E+00  0.00000E+00  9.000E+00
      21    -1     0     0   514   515  0.000000000E+00  0.000000000E+00 -2.579950993E+01  2.579950993E+01  0.000000000E+00  0.00000E+00  9.000E+00
       4     1     1     2   514     0 -1.280233657E+01  4.536276479E+00  1.019579299E+01  1.704939356E+01  1.500000000E+00  0.00000E+00  9.000E+00
       1     1     1     2   512     0  8.880792985E+00 -3.069130831E+01  2.325561473E+02  2.347409113E+02  3.300000131E-01  0.00000E+00  9.000E+00
      -4     1     1     2     0   512  3.921543587E+00  2.615503183E+01 -1.303663180E+01  2.952402349E+01  1.500000000E+00  0.00000E+00  9.000E+00
</event>
<event>
      5  10001  2.02673E+08  4.20380E+01 -1.00000E+00  1.43484E-01
      21    -1     0     0   511   514  0.000000000E+00  0.000000000E+00  1.813633550E+01  1.813633550E+01  0.000000000E+00  0.00000E+00  9.000E+00
      21    -1     0     0   513   511  0.000000000E+00  0.000000000E+00 -9.734922628E+01  9.734922628E+01  0.000000000E+00  0.00000E+00  9.000E+00
      21     1     1     2   512   514 -6.534417920E+00  1.900541967E+01 -2.310517293E+00  2.022975740E+01  5.101335874E-07  0.00000E+00  9.000E+00
      21     1     1     2   513   515 -5.677898761E+00 -1.091750681E+01 -7.944211935E+01  8.038955663E+01  0.000000000E+00  0.00000E+00  9.000E+00
      21     1     1     2   515   512  1.221231668E+01 -8.087912857E+00  2.539745862E+00  1.486624775E+01  2.747638362E-07  0.00000E+00  9.000E+00
</event>
<event>
      5  10001  2.02673E+08  1.56773E+01 -1.00000E+00  1.75549E-01
      21    -1     0     0   516   513  0.000000000E+00  0.000000000E+00  1.376325437E+02  1.376325437E+02  0.000000000E+00  0.00000E+00  9.000E+00
      21    -1     0     0   514   512  0.000000000E+00  0.000000000E+00 -4.605898140E+01  4.605898140E+01  0.000000000E+00  0.00000E+00  9.000E+00
      21     1     1     2   516   512 -2.788124164E+01 -1.026206296E+01 -3.827613682E+01  4.845344386E+01  0.000000000E+00  0.00000E+00  9.000E+00
      21     1     1     2   511   513  1.571367026E+01 -2.277773641E+00  9.428981330E+01  9.561734455E+01  0.000000000E+00  0.00000E+00  9.000E+00
      21     1     1     2   514   511  1.216757138E+01  1.253983660E+01  3.555988579E+01  3.962073665E+01  0.000000000E+00  0.00000E+00  9.000E+00
</event>
<event>
      5  10001  2.02673E+08  8.88628E+01 -1.00000E+00  1.26156E-01
       1    -1     0     0   512     0  0.000000000E+00  0.000000000E+00  5.162215269E+01  5.162215269E+01  0.000000000E+00  0.00000E+00  9.000E+00
      21    -1     0     0   515   511  0.000000000E+00  0.000000000E+00 -1.421966135E+02  1.421966135E+02  0.000000000E+00  0.00000E+00  9.000E+00
      21     1     1     2   512   511  3.860680214E+01 -3.114621378E+01 -6.697145015E+01  8.334114794E+01  9.536743164E-07  0.00000E+00  9.000E+00
       1     1     1     2   513     0  4.194172133E+00  1.735523574E+01  3.339909560E+01  3.787352339E+01  3.300000131E-01  0.00000E+00  9.000E+00
      21     1     1     2   515   513 -4.280097427E+01  1.379097804E+01 -5.700210626E+01  7.260409487E+01  9.536743164E-07  0.00000E+00  9.000E+00
</event>
<event>
      5  10001  2.02673E+08  2.94940E+01 -1.00000E+00  1.53519E-01
      21    -1     0     0   514   513  0.000000000E+00  0.000000000E+00  3.472501379E+01  3.472501379E+01  0.000000000E+00  0.00000E+00  9.000E+00
       2    -1     0     0   515     0  0.000000000E+00  0.000000000E+00 -1.454205149E+02  1.454205149E+02  0.000000000E+00  0.00000E+00  9.000E+00
      21     1     1     2   515   511 -3.527628561E+01 -2.580890502E+00  6.775243364E+00  3.601362583E+01  1.634515429E-06  0.00000E+00  9.000E+00
       2     1     1     2   514     0  5.025814416E+01 -1.879663427E+01 -9.740206231E+01  1.112046094E+02  3.300000131E-01  0.00000E+00  9.000E+00
      21     1     1     2   511   513 -1.498185854E+01  2.137752477E+01 -2.006868217E+01  3.292729346E+01  0.000000000E+00  0.00000E+00  9.000E+00
</event>
<event>
      5  10001  2.02673E+08  7.75088E+00 -1.00000E+00  2.09416E-01
      21    -1     0     0   514   515  0.000000000E+00  0.000000000E+00  1.839513272E+02  1.839513272E+02  0.000000000E+00  0.00000E+00  9.000E+00
      21    -1     0     0   511   513  0.000000000E+00  0.000000000E+00 -8.468730059E+01  8.468730059E+01  0.000000000E+00  0.00000E+00  9.000E+00
      21     1     1     2   512   513 -3.693766962E+01 -1.114853919E+01 -7.278172901E+01  8.237634030E+01  2.132480600E-06  0.00000E+00  9.000E+00
      21     1     1     2   511   515  4.021798335E+01  4.126027678E+00  5.152721784E+01  6.549476672E+01  0.000000000E+00  0.00000E+00  9.000E+00
      21     1     1     2   514   512 -3.280313728E+00  7.022511509E+00  1.205185378E+02  1.207675208E+02  1.907348633E-06  0.00000E+00  9.000E+00
</event>
<event>
      5  10001  2.02673E+08  2.05324E+01 -1.00000E+00  1.65392E-01
      21    -1     0     0   511   512  0.000000000E+00  0.000000000E+00  1.214221346E+01  1.214221346E+01  0.000000000E+00  0.00000E+00  9.000E+00
       2    -1     0     0   512     0  0.000000000E+00  0.000000000E+00 -6.859823178E+02  6.859823178E+02  0.000000000E+00  0.00000E+00  9.000E+00
      21     1     1     2   511   516  1.552963209E+01  2.447262387E+01 -8.263393599E+00  3.013905217E+01  1.803963894E-06  0.00000E+00  9.000E+00
       2     1     1     2   513     0 -1.484798313E+01 -9.804084466E+00 -6.165525796E+02  6.168093506E+02  3.300000131E-01  0.00000E+00  9.000E+00
      21     1     1     2   516   513 -6.816489571E-01 -1.466853940E+01 -4.902413112E+01  5.117612847E+01  0.000000000E+00  0.00000E+00  9.000E+00
</event>
<event>
      5  10001  2.02673E+08  1.34480E+01 -1.00000E+00  1.81922E-01
      21    -1     0     0   514   513  0.000000000E+00  0.000000000E+00  3.645168902E+00  3.645168902E+00  0.000000000E+00  0.00000E+00  9.000E+00
      21    -1     0     0   512   515  0.000000000E+00  0.000000000E+00 -4.219396899E+02  4.219396899E+02  0.000000000E+00  0.00000E+00  9.000E+00
      21     1     1     2   514   515 -1.543800261E+01  3.054870285E+01 -2.533865155E+02  2.556878594E+02  2.697398305E-06  0.00000E+00  9.000E+00
      21     1     1     2   511   513  5.410782743E+00 -2.680523994E+01 -8.538913383E+01  8.966103743E+01  1.907348633E-06  0.00000E+00  9.000E+00
      21     1     1     2   512   511  1.002721986E+01 -3.743462909E+00 -7.951887165E+01  8.023596202E+01  1.907348633E-06  0.00000E+00  9.000E+00
</event>
<event>
      5  10001  2.02673E+08  6.14070E+01 -1.00000E+00  1.34141E-01
      21    -1     0     0   516   511  0.000000000E+00  0.000000000E+00  2.401680472E+01  2.401680472E+01  0.000000000E+00  0.00000E+00  9.000E+00
      21    -1     0     0   512   517  0.000000000E+00  0.000000000E+00 -8.840836089E+01  8.840836089E+01  0.000000000E+00  0.00000E+00  9.000E+00
      21     1     1     2   516   517  2.249564126E+01 -1.395574716E+01 -4.343465129E+00  2.682689777E+01  7.907449699E-07  0.00000E+00  9.000E+00
      21     1     1     2   512   513  1.147816121E+01  2.089011087E+01 -3.682355895E+01  4.386478554E+01  1.168007728E-06  0.00000E+00  9.000E+00
      21     1     1     2   513   511 -3.397380247E+01 -6.934363708E+00 -2.322453210E+01  4.173348230E+01  1.118282261E-06  0.00000E+00  9.000E+00
</event>
<event>
      5  10001  2.02673E+08  1.35300E+01 -1.00000E+00  1.81660E-01
       2    -1     0     0   512     0  0.000000000E+00  0.000000000E+00  6.968997621E+02  6.968997621E+02  0.000000000E+00  0.00000E+00  9.000E+00
      21    -1     0     0   513   514  0.000000000E+00  0.000000000E+00 -4.772200616E+00  4.772200616E+00  0.000000000E+00  0.00000E+00  9.000E+00
      21     1     1     2   512   515 -2.542699951E+00 -1.348380425E+01  2.543396884E+01  2.889922267E+01  6.743495762E-07  0.00000E+00  9.000E+00
       2     1     1     2   513     0 -7.099152930E+00  3.326150452E+01  6.222693856E+02  6.231982211E+02  3.300000131E-01  0.00000E+00  9.000E+00
      21     1     1     2   515   514  9.641852881E+00 -1.977770027E+01  4.442420707E+01  4.957451895E+01  1.507891493E-06  0.00000E+00  9.000E+00
</event>
<event>
      5  10001  2.02673E+08  1.07546E+01 -1.00000E+00  1.92118E-01
      21    -1     0     0   511   513  0.000000000E+00  0.000000000E+00  2.485344714E+02  2.485344714E+02  0.000000000E+00  0.00000E+00  9.000E+00
       2    -1     0     0   515     0  0.000000000E+00  0.000000000E+00 -8.164629977E+01  8.164629977E+01  0.000000000E+00  0.00000E+00  9.000E+00
      21     1     1     2   512   513  2.123076034E+01 -5.833866575E+00  2.179731693E+02  2.190823629E+02  2.697398305E-06  0.00000E+00  9.000E+00
       2     1     1     2   511     0 -3.375225756E+01  6.253771910E+00 -7.589885327E+01  8.330107671E+01  3.300000131E-01  0.00000E+00  9.000E+00
      21     1     1     2   515   512  1.252149723E+01 -4.199053352E-01  2.481385552E+01  2.779733151E+01  6.743495762E-07  0.00000E+00  9.000E+00
</event>
<event>
      5  10001  2.02673E+08  7.45516E+01 -1.00000E+00  1.29825E-01
       1    -1     0     0   513     0  0.000000000E+00  0.000000000E+00  9.849797352E+02  9.849797352E+02  0.000000000E+00  0.00000E+00  9.000E+00
      21    -1     0     0   514   511  0.000000000E+00  0.000000000E+00 -6.547623955E+01  6.547623955E+01  0.000000000E+00  0.00000E+00  9.000E+00
      21     1     1     2   515   511 -3.304088687E+01  7.073601681E+00  4.896326357E+02  4.907971618E+02  9.344061824E-06  0.00000E+00  9.000E+00
       1     1     1     2   514     0  5.207507924E+01 -7.915436876E+01 -2.558450420E+01  9.814226270E+01  3.300000131E-01  0.00000E+00  9.000E+00
      21     1     1     2   513   515 -1.903419237E+01  7.208076708E+01  4.554553641E+02  4.615165502E+02  7.629394531E-06  0.00000E+00  9.000E+00
</event>
<event>
      5  10001  2.02673E+08  2.83707E+01 -1.00000E+00  1.54708E-01
      21    -1     0     0   514   511  0.000000000E+00  0.000000000E+00  8.296741245E+01  8.296741245E+01  0.000000000E+00  0.00000E+00  9.000E+00
       5    -1     0     0   515     0  0.000000000E+00  0.000000000E+00 -1.395953495E+02  1.395953495E+02  0.000000000E+00  0.00000E+00  9.000E+00
      21     1     1     2   514   512 -1.153523164E+01  2.022899040E+01 -1.852364765E+01  2.975565734E+01  1.168007728E-06  0.00000E+00  9.000E+00
       5     1     1     2   512     0  2.074413694E+01 -4.704649580E+01 -1.067233204E+02  1.185605293E+02  4.800000191E+00  0.00000E+00  9.000E+00
      21     1     1     2   515   511 -9.208905301E+00  2.681750540E+01  6.861903100E+01  7.424657532E+01  1.651812370E-06  0.00000E+00  9.000E+00
</event>
<event>
      5  10001  2.02673E+08  2.44482E+01 -1.00000E+00  1.59442E-01
      21    -1     0     0   513   512  0.000000000E+00  0.000000000E+00  1.431600845E+01  1.431600845E+01  0.000000000E+00  0.00000E+00  9.000E+00
      21    -1     0     0   515   511  0.000000000E+00  0.000000000E+00 -3.137530501E+02  3.137530501E+02  0.000000000E+00  0.00000E+00  9.000E+00
      21     1     1     2   513   511  1.355235451E+01 -6.373481475E+01 -1.290064100E+02  1.445283597E+02  3.303624740E-06  0.00000E+00  9.000E+00
      21     1     1     2   515   514 -1.468611340E+01  2.290776220E+01 -6.416651219E+01  6.969783915E+01  0.000000000E+00  0.00000E+00  9.000E+00
      21     1     1     2   514   512  1.133758892E+00  4.082705255E+01 -1.062641194E+02  1.138428597E+02  1.348699152E-06  0.00000E+00  9.000E+00
</event>
<event>
      5  10001  2.02673E+08  1.28137E+02 -1.00000E+00  1.19150E-01
       1    -1     0     0   511     0  0.000000000E+00  0.000000000E+00  1.237720647E+03  1.237720647E+03  0.000000000E+00  0.00000E+00  9.000E+00
      21    -1     0     0   516   511  0.000000000E+00  0.000000000E+00 -1.018292815E+01  1.018292815E+01  0.000000000E+00  0.00000E+00  9.000E+00
      21     1     1     2   516   514 -3.964471251E+01  2.992356331E+00  3.706017170E+01  5.435175943E+01  2.185142372E-06  0.00000E+00  9.000E+00
      21     1     1     2   514   513  1.725196916E+01 -2.707879427E+01  2.027228294E+02  2.052496945E+02  0.000000000E+00  0.00000E+00  9.000E+00
       1     1     1     2   513     0  2.239274334E+01  2.408643794E+01  9.877547178E+02  9.883021213E+02  3.300000131E-01  0.00000E+00  9.000E+00
</event>
<event>
      5  10001  2.02673E+08  2.99628E+01 -1.00000E+00  1.53042E-01
      21    -1     0     0   512   514  0.000000000E+00  0.000000000E+00  2.300963743E+02  2.300963743E+02  0.000000000E+00  0.00000E+00  9.000E+00
      21    -1     0     0   516   515  0.000000000E+00  0.000000000E+00 -6.358339145E+00  6.358339145E+00  0.000000000E+00  0.00000E+00  9.000E+00
      21     1     1     2   512   515  1.434008272E+01  2.165783537E+01  6.679728478E+01  7.166991739E+01  1.348699152E-06  0.00000E+00  9.000E+00
      21     1     1     2   516   511 -2.967662253E+01 -1.634298005E+01  1.005241002E+02  1.060796382E+02  1.348699152E-06  0.00000E+00  9.000E+00
      21     1     1     2   511   514  1.533653981E+01 -5.314855323E+00  5.641665017E+01  5.870515784E+01  6.743495762E-07  0.00000E+00  9.000E+00
</event>
<event>
      5  10001  2.02673E+08  1.11494E+01 -1.00000E+00  1.90394E-01
      21    -1     0     0   513   515  0.000000000E+00  0.000000000E+00  5.155761158E+00  5.155761158E+00  0.000000000E+00  0.00000E+00  9.000E+00
      21    -1     0     0   517   512  0.000000000E+00  0.000000000E+00 -3.013769986E+02  3.013769986E+02  0.000000000E+00  0.00000E+00  9.000E+00
      21     1     1     2   513   514 -3.360253320E+01 -1.180489975E+01 -9.175071503E+01  9.842093073E+01  0.000000000E+00  0.00000E+00  9.000E+00
      21     1     1     2   517   515  2.738407347E+01  2.550768592E+00 -1.382100680E+02  1.409198949E+02  1.907348633E-06  0.00000E+00  9.000E+00
      21     1     1     2   514   512  6.218459733E+00  9.254131163E+00 -6.626045438E+01  6.719193404E+01  1.348699152E-06  0.00000E+00  9.000E+00
</event>
<event>
      5  10001  2.02673E+08  5.38617E+00 -1.00000E+00  2.32922E-01
      21    -1     0     0   512   513  0.000000000E+00  0.000000000E+00  2.590714259E+02  2.590714259E+02  0.000000000E+00  0.00000E+00  9.000E+00
      21    -1     0     0   514   512  0.000000000E+00  0.000000000E+00 -2.441407464E+01  2.441407464E+01  0.000000000E+00  0.00000E+00  9.000E+00
      21     1     1     2   514   511 -1.598527397E+01 -3.525250129E+01 -4.421501090E+00  3.895917739E+01  9.721223372E-07  0.00000E+00  9.000E+00
       5     1     1     2   511     0  1.137026371E+01  3.798778458E+01  1.523400085E+02  1.574892786E+02  4.800000191E+00  0.00000E+00  9.000E+00
      -5     1     1     2     0   513  4.615010257E+00 -2.735283291E+00  8.673884383E+01  8.703704456E+01  4.800000191E+00  0.00000E+00  9.000E+00
</event>
<event>
      5  10001  2.02673E+08  3.22689E+01 -1.00000E+00  1.50839E-01
      21    -1     0     0   515   514  0.000000000E+00  0.000000000E+00  2.829116554E+01  2.829116554E+01  0.000000000E+00  0.00000E+00  9.000E+00
      21    -1     0     0   513   515  0.000000000E+00  0.000000000E+00 -1.317635371E+02  1.317635371E+02  0.000000000E+00  0.00000E+00  9.000E+00
      21     1     1     2   516   514  1.932014860E+01  2.595795572E+01  1.112362418E+01  3.421722697E+01  3.769728732E-07  0.00000E+00  9.000E+00
      21     1     1     2   513   511  2.807203109E+00 -2.888031081E+01 -7.444290888E+01  7.989805645E+01  9.536743164E-07  0.00000E+00  9.000E+00
      21     1     1     2   511   516 -2.212735171E+01  2.922355095E+00 -4.015308681E+01  4.593941917E+01  4.768371582E-07  0.00000E+00  9.000E+00
</event>
<event>
      5  10001  2.02673E+08  2.07840E+01 -1.00000E+00  1.64962E-01
      21    -1     0     0   512   513  0.000000000E+00  0.000000000E+00  1.428199648E+02  1.428199648E+02  0.000000000E+00  0.00000E+00  9.000E+00
      21    -1     0     0   511   512  0.000000000E+00  0.000000000E+00 -1.261010026E+01  1.261010026E+01  0.000000000E+00  0.00000E+00  9.000E+00
      -1     1     1     2     0   513  1.732355913E-01  4.138556619E+01  5.638603571E+01  6.994489990E+01  3.300000131E-01  0.00000E+00  9.000E+00
      21     1     1     2   511   514 -1.603115759E+00 -9.999097691E+00  9.444261307E+00  1.384723822E+01  1.192092896E-07  0.00000E+00  9.000E+00
       1     1     1     2   514     0  1.429880168E+00 -3.138646849E+01  6.437956748E+01  7.163792690E+01  3.300000131E-01  0.00000E+00  9.000E+00
</event>
<event>
      5  10001  2.02673E+08  5.89665E+01 -1.00000E+00  1.35081E-01
      21    -1     0     0   515   511  0.000000000E+00  0.000000000E+00  4.549583026E+01  4.549583026E+01  0.000000000E+00  0.00000E+00  9.000E+00
      21    -1     0     0   513   516  0.000000000E+00  0.000000000E+00 -4.126065198E+01  4.126065198E+01  0.000000000E+00  0.00000E+00  9.000E+00
      21     1     1     2   515   516 -2.945953270E+01  1.057884047E+01 -7.650522515E+00  3.222276257E+01  7.251217997E-07  0.00000E+00  9.000E+00
      21     1     1     2   513   512  1.042727299E+01  1.150979602E+01 -9.650969149E+00  1.828509316E+01  2.384185791E-07  0.00000E+00  9.000E+00
      21     1     1     2   512   511  1.903225971E+01 -2.208863649E+01  2.153666994E+01  3.624862651E+01  4.129530925E-07  0.00000E+00  9.000E+00
</event>
<event>
      5  10001  2.02673E+08  1.63488E+01 -1.00000E+00  1.73886E-01
      21    -1     0     0   514   513  0.000000000E+00  0.000000000E+00  1.064269880E+02  1.064269880E+02  0.000000000E+00  0.00000E+00  9.000E+00
      21    -1     0     0   517   511  0.000000000E+00  0.000000000E+00 -1.825082666E+01  1.825082666E+01  0.000000000E+00  0.00000E+00  9.000E+00
      21     1     1     2   514   511 -2.269408265E+01 -2.037245789E+01  8.227823776E+01  8.774831529E+01  9.536743164E-07  0.00000E+00  9.000E+00
      21     1     1     2   515   513  6.159395507E+00  1.755263103E+01 -1.363283110E+00  1.865185112E+01  4.050814277E-07  0.00000E+00  9.000E+00
      21     1     1     2   517   515  1.653468714E+01  2.819826856E+00  7.261206671E+00  1.827764823E+01  3.674277069E-07  0.00000E+00  9.000E+00
</event>
<event>
      5  10001  2.02673E+08  9.96887E+00 -1.00000E+00  1.95855E-01
       2    -1     0     0   511     0  0.000000000E+00  0.000000000E+00  1.455633100E+02  1.455633100E+02  0.000000000E+00  0.00000E+00  9.000E+00
      21    -1     0     0   512   515  0.000000000E+00  0.000000000E+00 -6.775607863E+00  6.775607863E+00  0.000000000E+00  0.00000E+00  9.000E+00
      21     1     1     2   511   513  2.157611946E+00  9.945030124E+00  1.150883117E+01  1.536268559E+01  2.920019320E-07  0.00000E+00  9.000E+00
       2     1     1     2   512     0 -5.854525110E+00 -2.963099578E+01  8.460532133E+01  8.983563142E+01  3.300000131E-01  0.00000E+00  9.000E+00
      21     1     1     2   513   515  3.696913164E+00  1.968596565E+01  4.267354960E+01  4.714060082E+01  0.000000000E+00  0.00000E+00  9.000E+00
</event>
<event>
      5  10001  2.02673E+08  5.78875E+01 -1.00000E+00  1.35513E-01
      -1    -1     0     0     0   514  0.000000000E+00  0.000000000E+00  1.929360334E+02  1.929360334E+02  0.000000000E+00  0.00000E+00  9.000E+00
      21    -1     0     0   511   512  0.000000000E+00  0.000000000E+00 -4.663926435E+02  4.663926435E+02  0.000000000E+00  0.00000E+00  9.000E+00
      -1     1     1     2     0   515  3.258265993E+01 -8.652568850E+01  1.720104879E+02  1.952845139E+02  3.300000131E-01  0.00000E+00  9.000E+00
      21     1     1     2   511   514 -2.289942120E+01  2.945382945E+01 -4.091313057E+01  5.536962898E+01  1.168007728E-06  0.00000E+00  9.000E+00
      21     1     1     2   515   512 -9.683238732E+00  5.707185905E+01 -4.045539674E+02  4.086745340E+02  0.000000000E+00  0.00000E+00  9.000E+00
</event>
<event>
      5  10001  2.02673E+08  2.07050E+01 -1.00000E+00  1.65096E-01
      21    -1     0     0   513   511  0.000000000E+00  0.000000000E+00  1.073286582E+03  1.073286582E+03  0.000000000E+00  0.00000E+00  9.000E+00
      21    -1     0     0   515   516  0.000000000E+00  0.000000000E+00 -9.553148560E-01  9.553148560E-01  0.000000000E+00  0.00000E+00  9.000E+00
      21     1     1     2   513   516  1.934341630E+01 -1.293422596E+01  3.057672690E+02  3.066514059E+02  3.814697266E-06  0.00000E+00  9.000E+00
      21     1     1     2   514   511 -2.692110282E+01  8.564149414E+00  4.380276800E+02  4.389377392E+02  5.394796609E-06  0.00000E+00  9.000E+00
      21     1     1     2   515   514  7.577686518E+00  4.370076544E+00  3.285363186E+02  3.286527522E+02  3.814697266E-06  0.00000E+00  9.000E+00
</event>
<event>
      5  10001  2.02673E+08  8.69139E+00 -1.00000E+00  2.03009E-01
      21    -1     0     0   515   513  0.000000000E+00  0.000000000E+00  7.375320440E+02  7.375320440E+02  0.000000000E+00  0.00000E+00  9.000E+00
      -1    -1     0     0     0   512  0.000000000E+00  0.000000000E+00 -5.094788805E+00  5.094788805E+00  0.000000000E+00  0.00000E+00  9.000E+00
      -1     1     1     2     0   511 -3.019666736E+01  4.065429642E-01  6.923604427E+01  7.553636689E+01  3.300000131E-01  0.00000E+00  9.000E+00
      21     1     1     2   515   512  3.886915874E+01  1.650206191E-01  1.964549813E+02  2.002633227E+02  3.814697266E-06  0.00000E+00  9.000E+00
      21     1     1     2   511   513 -8.672491383E+00 -5.715635834E-01  4.667462296E+02  4.668271433E+02  7.629394531E-06  0.00000E+00  9.000E+00
</event>
<event>
      5  10001  2.02673E+08  2.44854E+01 -1.00000E+00  1.59392E-01
      21    -1     0     0   514   516  0.000000000E+00  0.000000000E+00  2.682908006E+01  2.682908006E+01  0.000000000E+00  0.00000E+00  9.000E+00
      21    -1     0     0   511   513  0.000000000E+00  0.000000000E+00 -1.645118236E+02  1.645118236E+02  0.000000000E+00  0.00000E+00  9.000E+00
      21     1     1     2   514   513 -1.602822019E+01 -2.216637689E+01 -1.396730306E+02  1.423264121E+02  0.000000000E+00  0.00000E+00  9.000E+00
      21     1     1     2   511   512 -2.645518293E+00  2.176967917E+01  1.471919333E+01  2.641159501E+01  1.272806913E-06  0.00000E+00  9.000E+00
      21     1     1     2   512   516  1.867373848E+01  3.966977125E-01 -1.272890629E+01  2.260289656E+01  4.768371582E-07  0.00000E+00  9.000E+00
</event>
<event>
      5  10001  2.02673E+08  1.86949E+01 -1.00000E+00  1.68781E-01
      21    -1     0     0   515   511  0.000000000E+00  0.000000000E+00  5.100461373E+02  5.100461373E+02  0.000000000E+00  0.00000E+00  9.000E+00
      21    -1     0     0   513   515  0.000000000E+00  0.000000000E+00 -1.943333807E+02  1.943333807E+02  0.000000000E+00  0.00000E+00  9.000E+00
      21     1     1     2   516   517 -5.019865473E+01 -1.389202248E+01  9.904304658E+01  1.119036117E+02  3.303624740E-06  0.00000E+00  9.000E+00
      21     1     1     2   517   511  3.418355190E+01  4.247577710E+00  4.033719226E+02  4.048400488E+02  1.078959322E-05  0.00000E+00  9.000E+00
      21     1     1     2   513   516  1.601510283E+01  9.644444771E+00 -1.867022126E+02  1.876358575E+02  3.814697266E-06  0.00000E+00  9.000E+00
</event>
<event>
      5  10001  2.02673E+08  2.01593E+01 -1.00000E+00  1.66044E-01
       4    -1     0     0   511     0  0.000000000E+00  0.000000000E+00  9.206876214E+01  9.206876214E+01  0.000000000E+00  0.00000E+00  9.000E+00
      21    -1     0     0   512   514  0.000000000E+00  0.000000000E+00 -9.066563691E+01  9.066563691E+01  0.000000000E+00  0.00000E+00  9.000E+00
      21     1     1     2   513   514 -2.749029870E+01  2.983180133E+01 -6.885298790E+01  7.991487243E+01  1.907348633E-06  0.00000E+00  9.000E+00
       4     1     1     2   512     0  1.578919556E+01 -4.624499082E+01  2.884782866E+01  5.676570348E+01  1.500000000E+00  0.00000E+00  9.000E+00
      21     1     1     2   511   513  1.170110314E+01  1.641318949E+01  4.140828447E+01  4.605382315E+01  4.768371582E-07  0.00000E+00  9.000E+00
</event>
<event>
      5  10001  2.02673E+08  7.82276E+00 -1.00000E+00  2.08884E-01
       4    -1     0     0   511     0  0.000000000E+00  0.000000000E+00  3.941697346E+02  3.941697346E+02  0.000000000E+00  0.00000E+00  9.000E+00
      -3    -1     0     0     0   511  0.000000000E+00  0.000000000E+00 -3.331962200E+01  3.331962200E+01  0.000000000E+00  0.00000E+00  9.000E+00
      -3     1     1     2     0   512  6.757255674E+00 -4.466466524E+01 -1.297991379E+01  4.700341464E+01  5.000000000E-01  0.00000E+00  9.000E+00
       4     1     1     2   513     0 -5.659391415E+00  4.043380447E+01  3.738890103E+02  3.761145614E+02  1.500000000E+00  0.00000E+00  9.000E+00
      21     1     1     2   512   513 -1.097864259E+00  4.230860775E+00 -5.898394309E-02  4.371380552E+00  4.934252120E-08  0.00000E+00  9.000E+00
</event>
<event>
      5  10001  2.02673E+08  5.10487E+01 -1.00000E+00  1.38535E-01
      21    -1     0     0   514   512  0.000000000E+00  0.000000000E+00  8.083324057E+01  8.083324057E+01  0.000000000E+00  0.00000E+00  9.000E+00
      21    -1     0     0   515   514  0.000000000E+00  0.000000000E+00 -9.811996966E+01  9.811996966E+01  0.000000000E+00  0.00000E+00  9.000E+00
      21     1     1     2   515   516  6.145491793E+01 -2.992865509E+01 -4.841178311E+01  8.376235477E+01  9.536743164E-07  0.00000E+00  9.000E+00
      21     1     1     2   511   512 -4.420355019E+01 -8.425339552E+00  2.804458031E+01  5.302300143E+01  7.539457465E-07  0.00000E+00  9.000E+00
      21     1     1     2   516   511 -1.725136774E+01  3.835399464E+01  3.080473706E+00  4.216785402E+01  1.001819152E-06  0.00000E+00  9.000E+00
</event>
<event>
      5  10001  2.02673E+08  1.44907E+01 -1.00000E+00  1.78760E-01
      21    -1     0     0   515   511  0.000000000E+00  0.000000000E+00  7.903993445E+01  7.903993445E+01  0.000000000E+00  0.00000E+00  9.000E+00
      -3    -1     0     0     0   512  0.000000000E+00  0.000000000E+00 -5.608354091E+01  5.608354091E+01  0.000000000E+00  0.00000E+00  9.000E+00
      -3     1     1     2     0   511  1.057120157E+01 -3.530095264E+01  2.072647663E+01  4.228172647E+01  5.000000000E-01  0.00000E+00  9.000E+00
      21     1     1     2   515   513 -1.746153078E+01  2.255367022E+01  4.185522551E+01  5.065010365E+01  9.536743164E-07  0.00000E+00  9.000E+00
      21     1     1     2   513   512  6.890329212E+00  1.274728242E+01 -3.962530860E+01  4.219164523E+01  6.743495762E-07  0.00000E+00  9.000E+00
</event>
<event>
      5  10001  2.02673E+08  2.12533E+00 -1.00000E+00  3.50987E-01
      21    -1     0     0   514   512  0.000000000E+00  0.000000000E+00  5.147069334E+00  5.147069334E+00  0.000000000E+00  0.00000E+00  9.000E+00
      21    -1     0     0   511   516  0.000000000E+00  0.000000000E+00 -6.312667777E+02  6.312667777E+02  0.000000000E+00  0.00000E+00  9.000E+00
      21     1     1     2   514   516  1.116786783E+01 -3.063892859E+01 -5.617690091E+02  5.627147455E+02  1.321449896E-05  0.00000E+00  9.000E+00
      21     1     1     2   511   515 -1.065843369E+01  3.139646157E+01 -5.440925144E+01  6.371582731E+01  9.536743164E-07  0.00000E+00  9.000E+00
      21     1     1     2   515   512 -5.094341420E-01 -7.575329834E-01 -9.941447883E+00  9.983274281E+00  0.000000000E+00  0.00000E+00  9.000E+00
</event>
<event>
      5  10001  2.02673E+08  1.21441E+01 -1.00000E+00  1.86432E-01
       2    -1     0     0   511     0  0.000000000E+00  0.000000000E+00  1.431015160E+03  1.431015160E+03  0.000000000E+00  0.00000E+00  9.000E+00
      21    -1     0     0   513   514  0.000000000E+00  0.000000000E+00 -7.547805709E+00  7.547805709E+00  0.000000000E+00  0.00000E+00  9.000E+00
      21     1     1     2   511   515  2.858819333E+01  8.904662039E+00  4.708651973E+02  4.718162904E+02  5.394796609E-06  0.00000E+00  9.000E+00
       2     1     1     2   513     0 -3.695110973E+01 -9.892717320E-02  9.538255648E+02  9.545410999E+02  3.300000131E-01  0.00000E+00  9.000E+00
      21     1     1     2   515   514  8.362916402E+00 -8.805734866E+00 -1.223408191E+00  1.220557516E+01  9.126276969E-07  0.00000E+00  9.000E+00
</event>
<event>
      5  10001  2.02673E+08  1.42984E+01 -1.00000E+00  1.79317E-01
      21    -1     0     0   514   513  0.000000000E+00  0.000000000E+00  7.607576563E+00  7.607576563E+00  0.000000000E+00  0.00000E+00  9.000E+00
      -3    -1     0     0     0   512  0.000000000E+00  0.000000000E+00 -6.554522143E+02  6.554522143E+02  0.000000000E+00  0.00000E+00  9.000E+00
      -3     1     1     2     0   513 -3.106725476E+01 -2.716547618E+01 -5.598967708E+02  5.614158721E+02  5.000000000E-01  0.00000E+00  9.000E+00
      21     1     1     2   514   511  2.214885368E+01  1.671745492E+01 -2.544592678E+01  3.765023516E+01  1.011524364E-06  0.00000E+00  9.000E+00
      21     1     1     2   511   512  8.918401084E+00  1.044802126E+01 -6.250194015E+01  6.399368366E+01  0.000000000E+00  0.00000E+00  9.000E+00
</event>
<event>
      5  10001  2.02673E+08  9.02472E+00 -1.00000E+00  2.00992E-01
      21    -1     0     0   515   513  0.000000000E+00  0.000000000E+00  3.695833536E+01  3.695833536E+01  0.000000000E+00  0.00000E+00  9.000E+00
      21    -1     0     0   516   515  0.000000000E+00  0.000000000E+00 -7.180852233E+01  7.180852233E+01  0.000000000E+00  0.00000E+00  9.000E+00
      21     1     1     2   516   512  3.239093979E+01  6.732615837E+00  2.349604558E+01  4.057789120E+01  4.768371582E-07  0.00000E+00  9.000E+00
      21     1     1     2   512   514 -1.885416252E+01  3.098826224E-02 -4.126835267E+01  4.537132725E+01  4.768371582E-07  0.00000E+00  9.000E+00
      21     1     1     2   514   513 -1.353677726E+01 -6.763604100E+00 -1.707787988E+01  2.281763924E+01  2.384185791E-07  0.00000E+00  9.000E+00
</event>
<event>
      5  10001  2.02673E+08  8.57156E+00 -1.00000E+00  2.03764E-01
       5    -1     0     0   512     0  0.000000000E+00  0.000000000E+00  3.870843678E+01  3.870843678E+01  0.000000000E+00  0.00000E+00  9.000E+00
       2    -1     0     0   513     0  0.000000000E+00  0.000000000E+00 -1.615617682E+03  1.615617682E+03  0.000000000E+00  0.00000E+00  9.000E+00
      21     1     1     2   512   511 -2.930108433E+01 -3.873617408E+00 -2.952128045E+02  2.966886556E+02  6.607249480E-06  0.00000E+00  9.000E+00
       2     1     1     2   511     0  3.539576514E+01 -2.152375006E+00 -1.318789234E+03  1.319265950E+03  3.300000131E-01  0.00000E+00  9.000E+00
       5     1     1     2   513     0 -6.094680810E+00  6.025992413E+00  3.709279344E+01  3.837151347E+01  4.800000191E+00  0.00000E+00  9.000E+00
</event>
<event>
      5  10001  2.02673E+08  2.26945E+01 -1.00000E+00  1.61924E-01
      21    -1     0     0   514   511  0.000000000E+00  0.000000000E+00  2.658273571E+02  2.658273571E+02  0.000000000E+00  0.00000E+00  9.000E+00
      21    -1     0     0   512   515  0.000000000E+00  0.000000000E+00 -1.040179827E+02  1.040179827E+02  0.000000000E+00  0.00000E+00  9.000E+00
      21     1     1     2   514   515 -4.781977829E+01 -1.316010738E+01  2.419573013E+02  2.469883707E+02  0.000000000E+00  0.00000E+00  9.000E+00
      21     1     1     2   513   511  5.252016502E+01  3.536250084E+01 -7.739777979E+01  9.999645252E+01  2.697398305E-06  0.00000E+00  9.000E+00
      21     1     1     2   512   513 -4.700386733E+00 -2.220239346E+01 -2.750147114E+00  2.286051662E+01  5.413860716E-07  0.00000E+00  9.000E+00
</event>
<event>
      5  10001  2.02673E+08  9.86948E+00 -1.00000E+00  1.96360E-01
      21    -1     0     0   513   511  0.000000000E+00  0.000000000E+00  1.015531045E+02  1.015531045E+02  0.000000000E+00  0.00000E+00  9.000E+00
       3    -1     0     0   511     0  0.000000000E+00  0.000000000E+00 -7.610381166E+01  7.610381166E+01  0.000000000E+00  0.00000E+00  9.000E+00
      21     1     1     2   514   512 -3.782407830E+01 -1.259917631E+01  5.705888954E+01  6.960687480E+01  0.000000000E+00  0.00000E+00  9.000E+00
       3     1     1     2   512     0  4.645934104E+01  2.408120583E+01 -5.792787847E+01  7.806576682E+01  5.000000000E-01  0.00000E+00  9.000E+00
      21     1     1     2   513   514 -8.635262740E+00 -1.148202952E+01  2.631828181E+01  2.998427458E+01  3.371747881E-07  0.00000E+00  9.000E+00
</event>
<event>
      5  10001  2.02673E+08  6.28495E+01 -1.00000E+00  1.33609E-01
       2    -1     0     0   512     0  0.000000000E+00  0.000000000E+00  8.368210778E+02  8.368210778E+02  0.000000000E+00  0.00000E+00  9.000E+00
      21    -1     0     0   511   515  0.000000000E+00  0.000000000E+00 -3.079060719E+01  3.079060719E+01  0.000000000E+00  0.00000E+00  9.000E+00
      21     1     1     2   512   515 -5.010211693E+01  4.248451174E+01  5.936833864E+01  8.854239376E+01  2.939421655E-06  0.00000E+00  9.000E+00
       2     1     1     2   513     0  3.535264527E+01  1.860966766E+01  6.991279975E+02  7.002686592E+02  3.300000131E-01  0.00000E+00  9.000E+00
      21     1     1     2   511   513  1.474947166E+01 -6.109417940E+01  4.753413445E+01  7.880063203E+01  6.743495762E-07  0.00000E+00  9.000E+00
</event>
<event>
      5  10001  2.02673E+08  1.45648E+01 -1.00000E+00  1.78549E-01
      21    -1     0     0   513   512  0.000000000E+00  0.000000000E+00  9.560054669E+01  9.560054669E+01  0.000000000E+00  0.00000E+00  9.000E+00
      21    -1     0     0   514   513  0.000000000E+00  0.000000000E+00 -1.230027826E+02  1.230027826E+02  0.000000000E+00  0.00000E+00  9.000E+00
      -1     1     1     2     0   511  6.191913444E+01 -4.921578692E+01  2.414225369E+01  8.269903388E+01  3.300000131E-01  0.00000E+00  9.000E+00
       1     1     1     2   514     0 -5.971897808E+01  3.481824293E+01 -7.890808764E+01  1.049059654E+02  3.300000131E-01  0.00000E+00  9.000E+00
      21     1     1     2   511   512 -2.200156356E+00  1.439754398E+01  2.736359807E+01  3.099832996E+01  3.371747881E-07  0.00000E+00  9.000E+00
</event>
<event>
      5  10001  2.02673E+08  4.19285E+01 -1.00000E+00  1.43552E-01
      21    -1     0     0   515   516  0.000000000E+00  0.000000000E+00  1.958131938E+01  1.958131938E+01  0.000000000E+00  0.00000E+00  9.000E+00
      21    -1     0     0   512   515  0.000000000E+00  0.000000000E+00 -2.482982078E+02  2.482982078E+02  0.000000000E+00  0.00000E+00  9.000E+00
      21     1     1     2   514   516  4.030011240E+01  3.544463827E+01 -4.182562176E+01  6.804266366E+01  1.066240300E-06  0.00000E+00  9.000E+00
      21     1     1     2   513   514 -8.628149320E+00 -2.118046325E+01 -1.378836670E+02  1.397675306E+02  1.907348633E-06  0.00000E+00  9.000E+00
      21     1     1     2   512   513 -3.167196308E+01 -1.426417503E+01 -4.900759966E+01  6.006933294E+01  6.743495762E-07  0.00000E+00  9.000E+00
</event>
<event>
      5  10001  2.02673E+08  4.31335E+00 -1.00000E+00  2.55882E-01
      21    -1     0     0   515   513  0.000000000E+00  0.000000000E+00  7.480903287E+01  7.480903287E+01  0.000000000E+00  0.00000E+00  9.000E+00
      21    -1     0     0   513   514  0.000000000E+00  0.000000000E+00 -4.693488009E+01  4.693488009E+01  0.000000000E+00  0.00000E+00  9.000E+00
      -1     1     1     2     0   514 -1.109352167E+01 -2.570023667E+01 -2.703492501E+01  3.891740559E+01  3.300000131E-01  0.00000E+00  9.000E+00
       1     1     1     2   511     0  1.288190717E+01  2.962525708E+01  4.952263671E+00  3.268383706E+01  3.300000131E-01  0.00000E+00  9.000E+00
      21     1     1     2   515   511 -1.788385503E+00 -3.925020410E+00  4.995681412E+01  5.014267030E+01  6.743495762E-07  0.00000E+00  9.000E+00
</event>
<event>
      5  10001  2.02673E+08  1.38760E+01 -1.00000E+00  1.80581E-01
      21    -1     0     0   512   511  0.000000000E+00  0.000000000E+00  8.806901000E+01  8.806901000E+01  0.000000000E+00  0.00000E+00  9.000E+00
      21    -1     0     0   513   516  0.000000000E+00  0.000000000E+00 -2.824375907E+01  2.824375907E+01  0.000000000E+00  0.00000E+00  9.000E+00
      21     1     1     2   512   516 -2.707476011E+01  8.391193463E+00 -1.522172362E+01  3.217383460E+01  2.920019320E-07  0.00000E+00  9.000E+00
      21     1     1     2   513   514  2.355401852E+01  2.699169716E+00  6.334628266E+01  6.763748098E+01  0.000000000E+00  0.00000E+00  9.000E+00
      21     1     1     2   514   511  3.520741588E+00 -1.109036318E+01  1.170069189E+01  1.650145350E+01  0.000000000E+00  0.00000E+00  9.000E+00
</event>
<event>
      5  10001  2.02673E+08  1.45632E+01 -1.00000E+00  1.78553E-01
      21    -1     0     0   512   511  0.000000000E+00  0.000000000E+00  1.938195066E+01  1.938195066E+01  0.000000000E+00  0.00000E+00  9.000E+00
       2    -1     0     0   513     0  0.000000000E+00  0.000000000E+00 -3.143348500E+02  3.143348500E+02  0.000000000E+00  0.00000E+00  9.000E+00
      21     1     1     2   513   511  3.713343686E+01  8.343230255E+00 -1.152450171E+02  1.213668637E+02  1.348699152E-06  0.00000E+00  9.000E+00
       2     1     1     2   514     0 -2.461227487E+01 -1.577988630E+01 -1.914332480E+02  1.936532113E+02  3.300000131E-01  0.00000E+00  9.000E+00
      21     1     1     2   512   514 -1.252116199E+01  7.436656042E+00  1.172536578E+01  1.869672574E+01  2.920019320E-07  0.00000E+00  9.000E+00
</event>
<event>
      5  10001  2.02673E+08  9.65002E+00 -1.00000E+00  1.97503E-01
      21    -1     0     0   515   511  0.000000000E+00  0.000000000E+00  3.182563833E+02  3.182563833E+02  0.000000000E+00  0.00000E+00  9.000E+00
      21    -1     0     0   516   515  0.000000000E+00  0.000000000E+00 -1.786635424E+01  1.786635424E+01  0.000000000E+00  0.00000E+00  9.000E+00
      21     1     1     2   516   513  9.897640653E+00  3.682139820E+01  5.546347832E+00  3.852973696E+01  4.256623047E-07  0.00000E+00  9.000E+00
      21     1     1     2   517   511 -1.092962300E+01 -2.776374584E+01  1.870868389E+02  1.894512273E+02  3.814697266E-06  0.00000E+00  9.000E+00
      21     1     1     2   513   517  1.031982342E+00 -9.057652361E+00  1.077568423E+02  1.081417732E+02  0.000000000E+00  0.00000E+00  9.000E+00
</event>
<event>
      5  10001  2.02673E+08  3.61423E+01 -1.00000E+00  1.47593E-01
      21    -1     0     0   512   511  0.000000000E+00  0.000000000E+00  1.278726554E+02  1.278726554E+02  0.000000000E+00  0.00000E+00  9.000E+00
      21    -1     0     0   514   512  0.000000000E+00  0.000000000E+00 -2.867734430E+02  2.867734430E+02  0.000000000E+00  0.00000E+00  9.000E+00
      21     1     1     2   517   511 -1.695996807E+01 -9.892440537E+01  8.383644214E+01  1.307754852E+02  2.861022949E-06  0.00000E+00  9.000E+00
      21     1     1     2   514   515 -1.322097256E+00  1.055800307E+02 -2.424146158E+02  2.644120587E+02  2.697398305E-06  0.00000E+00  9.000E+00
      21     1     1     2   515   517  1.828206532E+01 -6.655625373E+00 -3.226139168E-01  1.945855445E+01  3.340112815E-07  0.00000E+00  9.000E+00
</event>
<event>
      5  10001  2.02673E+08  1.45520E+01 -1.00000E+00  1.78585E-01
      21    -1     0     0   512   514  0.000000000E+00  0.000000000E+00  6.301322976E+01  6.301322976E+01  0.000000000E+00  0.00000E+00  9.000E+00
       1    -1     0     0   511     0  0.000000000E+00  0.000000000E+00 -3.958253355E+02  3.958253355E+02  0.000000000E+00  0.00000E+00  9.000E+00
      21     1     1     2   511   514 -2.431759495E+00  2.494659863E+01 -9.787160228E+01  1.010301775E+02  2.336015456E-06  0.00000E+00  9.000E+00
       1     1     1     2   513     0 -5.339759816E+00 -3.724964396E+01 -2.942974395E+02  2.966936818E+02  3.300000131E-01  0.00000E+00  9.000E+00
      21     1     1     2   512   513  7.771519311E+00  1.230304534E+01  5.935693600E+01  6.111470599E+01  1.348699152E-06  0.00000E+00  9.000E+00
</event>
<event>
      5  10001  2.02673E+08  1.95649E+01 -1.00000E+00  1.67119E-01
      21    -1     0     0   515   513  0.000000000E+00  0.000000000E+00  8.803106993E+01  8.803106993E+01  0.000000000E+00  0.00000E+00  9.000E+00
      21    -1     0     0   511   516  0.000000000E+00  0.000000000E+00 -3.379641073E+01  3.379641073E+01  0.000000000E+00  0.00000E+00  9.000E+00
      21     1     1     2   515   516 -3.721408140E+01 -1.881968625E+01  6.246815333E+01  7.510884519E+01  6.743495762E-07  0.00000E+00  9.000E+00
      -3     1     1     2     0   513  1.754006586E+01  1.802630356E+01  5.266389439E-01  2.516205236E+01  5.000000000E-01  0.00000E+00  9.000E+00
       3     1     1     2   511     0  1.967401554E+01  7.933826885E-01 -8.760133072E+00  2.155658310E+01  5.000000000E-01  0.00000E+00  9.000E+00
</event>
<event>
      5  10001  2.02673E+08  3.52028E+01 -1.00000E+00  1.48334E-01
      -4    -1     0     0     0   512  0.000000000E+00  0.000000000E+00  2.472984681E+01  2.472984681E+01  0.000000000E+00  0.00000E+00  9.000E+00
      21    -1     0     0   512   514  0.000000000E+00  0.000000000E+00 -5.996036953E+01  5.996036953E+01  0.000000000E+00  0.00000E+00  9.000E+00
      21     1     1     2   513   511 -1.369024860E+01  8.910251883E+00 -1.304912779E+01  2.090682260E+01  3.371747881E-07  0.00000E+00  9.000E+00
      21     1     1     2   511   514  2.762254828E+01 -5.972891453E+00 -3.470878087E+01  4.475913399E+01  0.000000000E+00  0.00000E+00  9.000E+00
      -4     1     1     2     0   513 -1.393229968E+01 -2.937360429E+00  1.252738593E+01  1.902425975E+01  1.500000000E+00  0.00000E+00  9.000E+00
</event>
<event>
      5  10001  2.02673E+08  4.30117E+01 -1.00000E+00  1.42881E-01
      21    -1     0     0   515   512  0.000000000E+00  0.000000000E+00  4.807007756E+00  4.807007756E+00  0.000000000E+00  0.00000E+00  9.000E+00
       2    -1     0     0   511     0  0.000000000E+00  0.000000000E+00 -2.959039579E+02  2.959039579E+02  0.000000000E+00  0.00000E+00  9.000E+00
      21     1     1     2   511   512 -1.965044515E-01  2.195305184E+01 -1.166021915E+02  1.186509425E+02  1.348699152E-06  0.00000E+00  9.000E+00
      21     1     1     2   515   514  1.718721768E+01 -1.126409149E+01 -3.115878656E+01  3.732492717E+01  0.000000000E+00  0.00000E+00  9.000E+00
       2     1     1     2   514     0 -1.699071322E+01 -1.068896034E+01 -1.433359721E+02  1.447350960E+02  3.300000131E-01  0.00000E+00  9.000E+00
</event>
<event>
      5  10001  2.02673E+08  1.31384E+01 -1.00000E+00  1.82932E-01
      21    -1     0     0   513   514  0.000000000E+00  0.000000000E+00  2.208471525E+01  2.208471525E+01  0.000000000E+00  0.00000E+00  9.000E+00
       3    -1     0     0   512     0  0.000000000E+00  0.000000000E+00 -7.880494749E+01  7.880494749E+01  0.000000000E+00  0.00000E+00  9.000E+00
      21     1     1     2   512   514 -2.557504451E+01  2.514861000E+01 -1.570960556E+01  3.915772201E+01  9.830249847E-07  0.00000E+00  9.000E+00
       3     1     1     2   511     0  2.834934794E+01 -2.650170623E+01 -2.673852975E+01  4.712987307E+01  5.000000000E-01  0.00000E+00  9.000E+00
      21     1     1     2   513   511 -2.774303436E+00  1.353096229E+00 -1.427209693E+01  1.460206765E+01  0.000000000E+00  0.00000E+00  9.000E+00
</event>
<event>
      5  10001  2.02673E+08  7.36977E+00 -1.00000E+00  2.12372E-01
      21    -1     0     0   514   511  0.000000000E+00  0.000000000E+00  2.984250072E+01  2.984250072E+01  0.000000000E+00  0.00000E+00  9.000E+00
      21    -1     0     0   512   516  0.000000000E+00  0.000000000E+00 -1.369069764E+02  1.369069764E+02  0.000000000E+00  0.00000E+00  9.000E+00
      21     1     1     2   515   516 -2.103153890E+01 -3.441265294E+01 -1.558472710E+01  4.323702152E+01  1.052827938E-06  0.00000E+00  9.000E+00
      21     1     1     2   512   511  2.634861383E+01  2.930949846E+01 -1.027483907E+02  1.100478439E+02  1.907348633E-06  0.00000E+00  9.000E+00
      21     1     1     2   514   515 -5.317074928E+00  5.103154485E+00  1.126864216E+01  1.346461168E+01  4.129530925E-07  0.00000E+00  9.000E+00
</event>
<event>
      5  10001  2.02673E+08  3.04340E+01 -1.00000E+00  1.52573E-01
       1    -1     0     0   512     0  0.000000000E+00  0.000000000E+00  1.800546582E+02  1.800546582E+02  0.000000000E+00  0.00000E+00  9.000E+00
      21    -1     0     0   513   514  0.000000000E+00  0.000000000E+00 -9.747699771E+00  9.747699771E+00  0.000000000E+00  0.00000E+00  9.000E+00
      21     1     1     2   511   514  1.742516571E+01  1.669263840E+00  1.472712686E+00  1.756677900E+01  2.858538343E-07  0.00000E+00  9.000E+00
       1     1     1     2   513     0 -2.334852710E+01 -7.120361713E+00  1.002056473E+02  1.031364820E+02  3.300000131E-01  0.00000E+00  9.000E+00
      21     1     1     2   512   511  5.923361393E+00  5.451097873E+00  6.862859845E+01  6.909909698E+01  0.000000000E+00  0.00000E+00  9.000E+00
</event>
<event>
      5  10001  2.02673E+08  1.10701E+01 -1.00000E+00  1.90733E-01
      21    -1     0     0   515   513  0.000000000E+00  0.000000000E+00  3.557610131E+01  3.557610131E+01  0.000000000E+00  0.00000E+00  9.000E+00
      21    -1     0     0   516   511  0.000000000E+00  0.000000000E+00 -3.412118985E+01  3.412118985E+01  0.000000000E+00  0.00000E+00  9.000E+00
      21     1     1     2   515   511  2.195703603E+01  2.523513474E+01 -6.648779981E+00  3.410468783E+01  3.953724850E-07  0.00000E+00  9.000E+00
      21     1     1     2   514   513 -7.398883984E+00 -1.213037399E+01 -4.566592194E-01  1.421611744E+01  1.670990995E-07  0.00000E+00  9.000E+00
      21     1     1     2   516   514 -1.455815205E+01 -1.310476075E+01  8.560350665E+00  2.137648589E+01  3.576278687E-07  0.00000E+00  9.000E+00
</event>
<event>
      5  10001  2.02673E+08  1.06748E+01 -1.00000E+00  1.92479E-01
      21    -1     0     0   512   513  0.000000000E+00  0.000000000E+00  4.555796140E+01  4.555796140E+01  0.000000000E+00  0.00000E+00  9.000E+00
      -1    -1     0     0     0   512  0.000000000E+00  0.000000000E+00 -5.543377495E+02  5.543377495E+02  0.000000000E+00  0.00000E+00  9.000E+00
      21     1     1     2   514   513  3.461095241E+01  3.180869577E+00  3.581859395E+01  4.990999530E+01  1.066240300E-06  0.00000E+00  9.000E+00
      21     1     1     2   516   514 -2.630168220E+01  3.520358148E+00 -6.419239900E+01  6.946103583E+01  0.000000000E+00  0.00000E+00  9.000E+00
      -1     1     1     2     0   516 -8.309270213E+00 -6.701227725E+00 -4.804059830E+02  4.805246798E+02  3.300000131E-01  0.00000E+00  9.000E+00
</event>
<event>
      5  10001  2.02673E+08  1.22682E+01 -1.00000E+00  1.85972E-01
      21    -1     0     0   511   514  0.000000000E+00  0.000000000E+00  1.039530705E+01  1.039530705E+01  0.000000000E+00  0.00000E+00  9.000E+00
      21    -1     0     0   515   511  0.000000000E+00  0.000000000E+00 -2.173252362E+02  2.173252362E+02  0.000000000E+00  0.00000E+00  9.000E+00
      21     1     1     2   516   514 -2.651437655E+01  3.735015249E+01 -8.210370137E+01  9.401629558E+01  2.697398305E-06  0.00000E+00  9.000E+00
      21     1     1     2   512   516  1.254969367E+01 -2.192444644E+01 -8.625686617E+01  8.988004853E+01  1.348699152E-06  0.00000E+00  9.000E+00
      21     1     1     2   515   512  1.396468288E+01 -1.542570605E+01 -3.856936158E+01  4.382419911E+01  8.259061849E-07  0.00000E+00  9.000E+00
</event>
<event>
      5  10001  2.02673E+08  3.52016E+00 -1.00000E+00  2.77151E-01
       2    -1     0     0   513     0  0.000000000E+00  0.000000000E+00  6.776963843E+02  6.776963843E+02  0.000000000E+00  0.00000E+00  9.000E+00
      21    -1     0     0   514   517  0.000000000E+00  0.000000000E+00 -9.376850801E+00  9.376850801E+00  0.000000000E+00  0.00000E+00  9.000E+00
      21     1     1     2   513   517 -4.561382375E+00 -2.943862170E+01  2.147209705E+02  2.167776137E+02  3.814697266E-06  0.00000E+00  9.000E+00
      21     1     1     2   514   512  5.989185411E+00  3.265618367E+01  2.469629871E+01  4.137878494E+01  9.536743164E-07  0.00000E+00  9.000E+00
       2     1     1     2   512     0 -1.427803036E+00 -3.217561972E+00  4.289022643E+02  4.289168364E+02  3.300000131E-01  0.00000E+00  9.000E+00
</event>
<event>
      5  10001  2.02673E+08  3.68212E+01 -1.00000E+00  1.47074E-01
      21    -1     0     0   511   514  0.000000000E+00  0.000000000E+00  1.059759201E+02  1.059759201E+02  0.000000000E+00  0.00000E+00  9.000E+00
       1    -1     0     0   516     0  0.000000000E+00  0.000000000E+00 -6.340211107E+02  6.340211107E+02  0.000000000E+00  0.00000E+00  9.000E+00
      21     1     1     2   511   515  3.044815627E+01 -7.175826078E+01  6.244037835E+01  9.987561794E+01  1.784161275E-06  0.00000E+00  9.000E+00
      21     1     1     2   516   514 -3.347649083E+01  3.506183815E+01  1.197032390E-02  4.847688187E+01  1.608833794E-06  0.00000E+00  9.000E+00
       1     1     1     2   515     0  3.028334565E+00  3.669642263E+01 -5.904975393E+02  5.916445310E+02  3.300000131E-01  0.00000E+00  9.000E+00
</event>
<event>
      5  10001  2.02673E+08  1.60521E+01 -1.00000E+00  1.74608E-01
      21    -1     0     0   511   513  0.000000000E+00  0.000000000E+00  2.443336639E+01  2.443336639E+01  0.000000000E+00  0.00000E+00  9.000E+00
       2    -1     0     0   512     0  0.000000000E+00  0.000000000E+00 -3.022997995E+02  3.022997995E+02  0.000000000E+00  0.00000E+00  9.000E+00
       1     1     1     2   512     0 -2.853041093E+01 -2.260844758E+01 -3.517458024E+01  5.062100596E+01  3.300000131E-01  0.00000E+00  9.000E+00
       2     1     1     2   511     0  4.199463065E+01  3.134781670E+01 -2.521095145E+02  2.574986424E+02  3.300000131E-01  0.00000E+00  9.000E+00
      -1     1     1     2     0   513 -1.346421972E+01 -8.739369120E+00  9.417661631E+00  1.861351756E+01  3.300000131E-01  0.00000E+00  9.000E+00
</event>
<event>
      5  10001  2.02673E+08  1.39723E+01 -1.00000E+00  1.80288E-01
      21    -1     0     0   514   515  0.000000000E+00  0.000000000E+00  5.607725449E+02  5.607725449E+02  0.000000000E+00  0.00000E+00  9.000E+00
      21    -1     0     0   512   513  0.000000000E+00  0.000000000E+00 -2.266200857E+01  2.266200857E+01  0.000000000E+00  0.00000E+00  9.000E+00
      21     1     1     2   514   513  3.135409490E+01 -1.200862602E+01 -8.137193390E+00  3.454707343E+01  1.739802303E-06  0.00000E+00  9.000E+00
      21     1     1     2   512   511 -3.620674510E+01  1.994532186E+01  5.004617011E+02  5.021659671E+02  7.629394531E-06  0.00000E+00  9.000E+00
      21     1     1     2   511   515  4.852650203E+00 -7.936695840E+00  4.578602862E+01  4.672151295E+01  1.168007728E-06  0.00000E+00  9.000E+00
</event>
<event>
      5  10001  2.02673E+08  3.70360E+01 -1.00000E+00  1.46912E-01
      21    -1     0     0   516   511  0.000000000E+00  0.000000000E+00  3.386729995E+01  3.386729995E+01  0.000000000E+00  0.00000E+00  9.000E+00
      21    -1     0     0   515   516  0.000000000E+00  0.000000000E+00 -5.713168897E+01  5.713168897E+01  0.000000000E+00  0.00000E+00  9.000E+00
      21     1     1     2   512   511 -3.069484542E+01  1.167350571E+01  1.750068554E+01  3.721180277E+01  2.384185791E-07  0.00000E+00  9.000E+00
      21     1     1     2   515   513  4.046021356E+00  1.796182228E+00 -2.005963751E+00  4.860087446E+00  4.214684851E-08  0.00000E+00  9.000E+00
      21     1     1     2   513   512  2.664882407E+01 -1.346968794E+01 -3.875911080E+01  4.892709870E+01  1.261592536E-06  0.00000E+00  9.000E+00
</event>
<event>
      5  10001  2.02673E+08  7.05442E+00 -1.00000E+00  2.15008E-01
      21    -1     0     0   511   512  0.000000000E+00  0.000000000E+00  2.274997404E+01  2.274997404E+01  0.000000000E+00  0.00000E+00  9.000E+00
      -2    -1     0     0     0   513  0.000000000E+00  0.000000000E+00 -1.700617707E+02  1.700617707E+02  0.000000000E+00  0.00000E+00  9.000E+00
      -4     1     1     2     0   513 -3.611167563E+01  1.728784847E+01 -3.277945923E+01  5.176548820E+01  1.500000000E+00  0.00000E+00  9.000E+00
      -2     1     1     2     0   512  3.468311536E+01 -1.038342579E+01 -1.239824400E+02  1.291607075E+02  3.300000131E-01  0.00000E+00  9.000E+00
       4     1     1     2   511     0  1.428560272E+00 -6.904422676E+00  9.450102603E+00  1.188554905E+01  1.500000000E+00  0.00000E+00  9.000E+00
</event>
<event>
      5  10001  2.02673E+08  6.67366E+00 -1.00000E+00  2.18453E-01
      21    -1     0     0   515   512  0.000000000E+00  0.000000000E+00  9.904024138E+00  9.904024138E+00  0.000000000E+00  0.00000E+00  9.000E+00
      -4    -1     0     0     0   514  0.000000000E+00  0.000000000E+00 -9.485411186E+01  9.485411186E+01  0.000000000E+00  0.00000E+00  9.000E+00
      -4     1     1     2     0   512  4.433550611E+00  2.851029238E+01 -4.631691084E+01  5.458937050E+01  1.500000000E+00  0.00000E+00  9.000E+00
      21     1     1     2   515   513 -4.043752089E-01 -2.527137741E+01 -2.483606514E+01  3.543495686E+01  6.743495762E-07  0.00000E+00  9.000E+00
      21     1     1     2   513   514 -4.029175402E+00 -3.238914963E+00 -1.379711174E+01  1.473380864E+01  2.384185791E-07  0.00000E+00  9.000E+00
</event>
<event>
      5  10001  2.02673E+08  6.54927E+01 -1.00000E+00  1.32675E-01
      21    -1     0     0   511   513  0.000000000E+00  0.000000000E+00  1.513289125E+02  1.513289125E+02  0.000000000E+00  0.00000E+00  9.000E+00
       1    -1     0     0   512     0  0.000000000E+00  0.000000000E+00 -8.739061072E+00  8.739061072E+00  0.000000000E+00  0.00000E+00  9.000E+00
      21     1     1     2   512   513 -6.405820424E+00 -2.172557100E+00  1.395981020E+01  1.551228031E+01  3.769728732E-07  0.00000E+00  9.000E+00
      21     1     1     2   511   515  5.678899269E+00  2.839128207E-01  1.364006498E+02  1.365191114E+02  1.907348633E-06  0.00000E+00  9.000E+00
       1     1     1     2   515     0  7.269211551E-01  1.888644280E+00 -7.770608550E+00  8.036581912E+00  3.300000131E-01  0.00000E+00  9.000E+00
</event>
<event>
      5  10001  2.02673E+08  5.23618E+01 -1.00000E+00  1.37913E-01
       2    -1     0     0   512     0  0.000000000E+00  0.000000000E+00  1.354189970E+01  1.354189970E+01  0.000000000E+00  0.00000E+00  9.000E+00
       2    -1     0     0   514     0  0.000000000E+00  0.000000000E+00 -3.783396562E+02  3.783396562E+02  0.000000000E+00  0.00000E+00  9.000E+00
       2     1     1     2   514     0  1.797435273E+01 -3.312789443E+01 -1.839233009E+01  4.193949751E+01  3.300000131E-01  0.00000E+00  9.000E+00
      21     1     1     2   512   511 -6.160438850E+00 -4.781463769E+00 -1.053198725E+02  1.056081860E+02  1.348699152E-06  0.00000E+00  9.000E+00
       2     1     1     2   511     0 -1.181391388E+01  3.790935820E+01 -2.410855539E+02  2.443338724E+02  3.300000131E-01  0.00000E+00  9.000E+00
</event>
<event>
      5  10001  2.02673E+08  4.63005E+00 -1.00000E+00  2.49251E-01
       2    -1     0     0   511     0  0.000000000E+00  0.000000000E+00  2.361531130E+02  2.361531130E+02  0.000000000E+00  0.00000E+00  9.000E+00
       1    -1     0     0   513     0  0.000000000E+00  0.000000000E+00 -1.650536925E+01  1.650536925E+01  0.000000000E+00  0.00000E+00  9.000E+00
       1     1     1     2   512     0  4.090272923E+01  1.370304171E+00  2.264096021E+01  4.677213883E+01  3.300000131E-01  0.00000E+00  9.000E+00
       2     1     1     2   513     0 -4.321608509E+01 -2.975941757E+00  1.981626500E+02  2.028423797E+02  3.300000131E-01  0.00000E+00  9.000E+00
      21     1     1     2   511   512  2.313355862E+00  1.605637586E+00 -1.155866520E+00  3.043963668E+00  3.942476677E-08  0.00000E+00  9.000E+00
</event>
<event>
      5  10001  2.02673E+08  2.86937E+01 -1.00000E+00  1.54359E-01
      21    -1     0     0   514   513  0.000000000E+00  0.000000000E+00  4.953814304E+01  4.953814304E+01  0.000000000E+00  0.00000E+00  9.000E+00
      21    -1     0     0   515   512  0.000000000E+00  0.000000000E+00 -4.666097102E+01  4.666097102E+01  0.000000000E+00  0.00000E+00  9.000E+00
      21     1     1     2   514   512 -2.330273296E+00 -3.708074389E+01  2.139137808E+01  4.287193484E+01  3.371747881E-07  0.00000E+00  9.000E+00
      21     1     1     2   516   513 -1.487056222E+01  2.324975687E+01 -1.335656808E+01  3.066076852E+01  2.920019320E-07  0.00000E+00  9.000E+00
      21     1     1     2   515   516  1.720083552E+01  1.383098702E+01 -5.157637982E+00  2.266641070E+01  3.625608999E-07  0.00000E+00  9.000E+00
</event>
<event>
      5  10001  2.02673E+08  4.18565E+01 -1.00000E+00  1.43598E-01
      21    -1     0     0   511   513  0.000000000E+00  0.000000000E+00  1.101870618E+01  1.101870618E+01  0.000000000E+00  0.00000E+00  9.000E+00
       1    -1     0     0   515     0  0.000000000E+00  0.000000000E+00 -7.854362970E+02  7.854362970E+02  0.000000000E+00  0.00000E+00  9.000E+00
      21     1     1     2   515   513  4.117496043E+01  3.076778079E+00 -4.262737629E+01  5.934591089E+01  1.261592536E-06  0.00000E+00  9.000E+00
       1     1     1     2   512     0 -5.320572126E+01  1.813302253E+01 -6.272038047E+02  6.297176961E+02  3.300000131E-01  0.00000E+00  9.000E+00
      21     1     1     2   511   512  1.203076083E+01 -2.120980061E+01 -1.045864098E+02  1.073913961E+02  2.336015456E-06  0.00000E+00  9.000E+00
</event>
<event>
      5  10001  2.02673E+08  8.14234E+00 -1.00000E+00  2.06609E-01
      21    -1     0     0   514   512  0.000000000E+00  0.000000000E+00  6.464310492E+02  6.464310492E+02  0.000000000E+00  0.00000E+00  9.000E+00
      21    -1     0     0   516   514  0.000000000E+00  0.000000000E+00 -7.681898823E+00  7.681898823E+00  0.000000000E+00  0.00000E+00  9.000E+00
      21     1     1     2   516   515  3.725081249E+01 -6.798386005E+00  4.683559146E+01  6.022801433E+01  9.536743164E-07  0.00000E+00  9.000E+00
      21     1     1     2   515   513 -4.196908808E+01  6.123873119E+00  5.615620271E+02  5.631614479E+02  0.000000000E+00  0.00000E+00  9.000E+00
      21     1     1     2   513   512  4.718275595E+00  6.745128857E-01  3.035153183E+01  3.072348576E+01  3.371747881E-07  0.00000E+00  9.000E+00
</event>
<event>
      5  10001  2.02673E+08  8.17048E+00 -1.00000E+00  2.06415E-01
      21    -1     0     0   511   514  0.000000000E+00  0.000000000E+00  7.319116458E+00  7.319116458E+00  0.000000000E+00  0.00000E+00  9.000E+00
       2    -1     0     0   513     0  0.000000000E+00  0.000000000E+00 -6.722532634E+02  6.722532634E+02  0.000000000E+00  0.00000E+00  9.000E+00
      21     1     1     2   513   512 -1.088047632E+01 -4.839100885E+01 -1.224996484E+02  1.321598970E+02  1.907348633E-06  0.00000E+00  9.000E+00
       2     1     1     2   511     0  3.988721372E+00  5.277959555E+01 -5.293278151E+02  5.319677061E+02  3.300000131E-01  0.00000E+00  9.000E+00
      21     1     1     2   512   514  6.891754946E+00 -4.388586704E+00 -1.310668336E+01  1.544477673E+01  2.920019320E-07  0.00000E+00  9.000E+00
</event>
<event>
      5  10001  2.02673E+08  4.01820E+00 -1.00000E+00  2.62899E-01
       1    -1     0     0   512     0  0.000000000E+00  0.000000000E+00  3.441415377E+01  3.441415377E+01  0.000000000E+00  0.00000E+00  9.000E+00
      21    -1     0     0   515   511  0.000000000E+00  0.000000000E+00 -3.143966764E+01  3.143966764E+01  0.000000000E+00  0.00000E+00  9.000E+00
      21     1     1     2   512   511  2.893150397E+01 -5.828067053E+00 -1.112847675E+01  3.154110465E+01  5.462855929E-07  0.00000E+00  9.000E+00
       1     1     1     2   513     0 -2.500697838E+01  5.048162091E+00  1.575256164E+01  2.998474623E+01  3.300000131E-01  0.00000E+00  9.000E+00
      21     1     1     2   515   513 -3.924525594E+00  7.799049622E-01 -1.649598756E+00  4.327970534E+00  5.575503985E-08  0.00000E+00  9.000E+00
</event>
<event>
      5  10001  2.02673E+08  1.19075E+01 -1.00000E+00  1.87329E-01
      -1    -1     0     0     0   511  0.000000000E+00  0.000000000E+00  1.064120036E+01  1.064120036E+01  0.000000000E+00  0.00000E+00  9.000E+00
       2    -1     0     0   514     0  0.000000000E+00  0.000000000E+00 -1.597314235E+03  1.597314235E+03  0.000000000E+00  0.00000E+00  9.000E+00
      -1     1     1     2     0   512  3.644981365E+01  2.086329529E+00 -3.734933057E+01  5.223048037E+01  3.300000131E-01  0.00000E+00  9.000E+00
       2     1     1     2   512     0 -2.774769201E+01  6.041481403E+00 -1.540846366E+03  1.541108064E+03  3.300000131E-01  0.00000E+00  9.000E+00
      21     1     1     2   514   511 -8.702121631E+00 -8.127810933E+00 -8.477338404E+00  1.461689084E+01  1.032382731E-06  0.00000E+00  9.000E+00
</event>
<event>
      5  10001  2.02673E+08  3.66428E+01 -1.00000E+00  1.47209E-01
      21    -1     0     0   513   512  0.000000000E+00  0.000000000E+00  1.712838581E+00  1.712838581E+00  0.000000000E+00  0.00000E+00  9.000E+00
      21    -1     0     0   514   511  0.000000000E+00  0.000000000E+00 -6.365163041E+02  6.365163041E+02  0.000000000E+00  0.00000E+00  9.000E+00
      21     1     1     2   513   511  1.252286761E+01  2.540676799E+01 -3.885995637E+02  3.896305263E+02  5.394796609E-06  0.00000E+00  9.000E+00
      21     1     1     2   515   512 -2.030393431E+00 -5.067727393E+00 -1.326033639E+02  1.327156979E+02  0.000000000E+00  0.00000E+00  9.000E+00
      21     1     1     2   514   515 -1.049247418E+01 -2.033904060E+01 -1.136005379E+02  1.158829185E+02  3.015782986E-06  0.00000E+00  9.000E+00
</event>
<event>
      5  10001  2.02673E+08  3.41571E+01 -1.00000E+00  1.49192E-01
       1    -1     0     0   511     0  0.000000000E+00  0.000000000E+00  5.526558415E+02  5.526558415E+02  0.000000000E+00  0.00000E+00  9.000E+00
      21    -1     0     0   516   515  0.000000000E+00  0.000000000E+00 -4.099889789E+00  4.099889789E+00  0.000000000E+00  0.00000E+00  9.000E+00
      21     1     1     2   511   515 -1.170969830E+01  3.994711825E+01  1.705551011E+02  1.755617606E+02  0.000000000E+00  0.00000E+00  9.000E+00
       1     1     1     2   512     0 -6.242262949E+00 -1.332807706E+01  1.806134371E+02  1.812123782E+02  3.300000131E-01  0.00000E+00  9.000E+00
      21     1     1     2   516   512  1.795196124E+01 -2.661904119E+01  1.973874136E+02  1.999815924E+02  3.814697266E-06  0.00000E+00  9.000E+00
</event>
<event>
      5  10001  2.02673E+08  1.49703E+01 -1.00000E+00  1.77417E-01
      -3    -1     0     0     0   515  0.000000000E+00  0.000000000E+00  2.941060518E+02  2.941060518E+02  0.000000000E+00  0.00000E+00  9.000E+00
      21    -1     0     0   513   511  0.000000000E+00  0.000000000E+00 -1.103619522E+01  1.103619522E+01  0.000000000E+00  0.00000E+00  9.000E+00
      -3     1     1     2     0   514 -3.763638363E+01 -7.778390204E+00  2.047949195E+02  2.083703669E+02  5.000000000E-01  0.00000E+00  9.000E+00
      21     1     1     2   514   511  2.337070988E+01  1.231598310E+01  1.233713230E+01  2.915610320E+01  1.039242493E-06  0.00000E+00  9.000E+00
      21     1     1     2   513   515  1.426567375E+01 -4.537592894E+00  6.593780478E+01  6.761577697E+01  9.536743164E-07  0.00000E+00  9.000E+00
</event>
<event>
      5  10001  2.02673E+08  1.73245E+01 -1.00000E+00  1.71641E-01
       1    -1     0     0   512     0  0.000000000E+00  0.000000000E+00  1.664918890E+02  1.664918890E+02  0.000000000E+00  0.00000E+00  9.000E+00
      21    -1     0     0   513   512  0.000000000E+00  0.000000000E+00 -1.524868818E+01  1.524868818E+01  0.000000000E+00  0.00000E+00  9.000E+00
      21     1     1     2   515   511  6.513124217E-04 -2.286374991E+01  2.781659799E+01  3.600714074E+01  6.743495762E-07  0.00000E+00  9.000E+00
      21     1     1     2   513   515  1.808954582E+00  4.009314417E+01  2.846399659E+01  4.920296361E+01  8.920806376E-07  0.00000E+00  9.000E+00
       1     1     1     2   511     0 -1.809605894E+00 -1.722939426E+01  9.496260627E+01  9.653047286E+01  3.300000131E-01  0.00000E+00  9.000E+00
</event>
<event>
      5  10001  2.02673E+08  1.38017E+01 -1.00000E+00  1.80810E-01
      21    -1     0     0   514   515  0.000000000E+00  0.000000000E+00  3.606731704E+01  3.606731704E+01  0.000000000E+00  0.00000E+00  9.000E+00
      21    -1     0     0   516   514  0.000000000E+00  0.000000000E+00 -4.307666589E+01  4.307666589E+01  0.000000000E+00  0.00000E+00  9.000E+00
      21     1     1     2   513   515 -3.581818131E+01  1.244915478E+01 -8.828177647E-01  3.793023774E+01  6.620544163E-07  0.00000E+00  9.000E+00
      21     1     1     2   512   513  1.707903296E+01 -1.339549074E+01 -5.718666111E+00  2.244628435E+01  4.768371582E-07  0.00000E+00  9.000E+00
      21     1     1     2   516   512  1.873914835E+01  9.463359555E-01 -4.078649654E-01  1.876746085E+01  3.695743330E-07  0.00000E+00  9.000E+00
</event>
<event>
      5  10001  2.02673E+08  3.23035E+01 -1.00000E+00  1.50807E-01
      21    -1     0     0   511   512  0.000000000E+00  0.000000000E+00  1.555908876E+02  1.555908876E+02  0.000000000E+00  0.00000E+00  9.000E+00
      21    -1     0     0   515   517  0.000000000E+00  0.000000000E+00 -2.210226688E+02  2.210226688E+02  0.000000000E+00  0.00000E+00  9.000E+00
      21     1     1     2   511   517 -7.057069146E+01  6.276893009E+01 -1.940702960E+02  2.158319737E+02  0.000000000E+00  0.00000E+00  9.000E+00
      21     1     1     2   515   513  2.497722332E+01 -1.067925779E+01  3.369884370E+01  4.328418069E+01  4.768371582E-07  0.00000E+00  9.000E+00
      21     1     1     2   513   512  4.559346814E+01 -5.208967230E+01  9.493967117E+01  1.174974019E+02  1.907348633E-06  0.00000E+00  9.000E+00
</event>
<event>
      5  10001  2.02673E+08  1.75605E+01 -1.00000E+00  1.71125E-01
       1    -1     0     0   511     0  0.000000000E+00  0.000000000E+00  2.768473366E+02  2.768473366E+02  0.000000000E+00  0.00000E+00  9.000E+00
      -4    -1     0     0     0   511  0.000000000E+00  0.000000000E+00 -1.123148963E+01  1.123148963E+01  0.000000000E+00  0.00000E+00  9.000E+00
      -4     1     1     2     0   512 -1.068014035E+01  3.299971916E+01  2.300718056E+01  4.164885616E+01  1.500000000E+00  0.00000E+00  9.000E+00
       1     1     1     2   514     0 -2.810365755E+00 -2.179194385E+01  1.823949864E+02  1.837139814E+02  3.300000131E-01  0.00000E+00  9.000E+00
      21     1     1     2   512   514  1.349050611E+01 -1.120777531E+01  6.021367999E+01  6.271598872E+01  9.536743164E-07  0.00000E+00  9.000E+00
</event>
<event>
      5  10001  2.02673E+08  1.50873E+01 -1.00000E+00  1.77099E-01
       2    -1     0     0   512     0  0.000000000E+00  0.000000000E+00  4.189968685E+02  4.189968685E+02  0.000000000E+00  0.00000E+00  9.000E+00
      21    -1     0     0   513   511  0.000000000E+00  0.000000000E+00 -3.065289749E+00  3.065289749E+00  0.000000000E+00  0.00000E+00  9.000E+00
      21     1     1     2   512   511  2.269314380E+01 -1.987368286E+01  1.070617091E+02  1.112301740E+02  1.348699152E-06  0.00000E+00  9.000E+00
       2     1     1     2   515     0 -9.647766296E+00  1.038112003E+01  2.236223840E+02  2.240712533E+02  3.300000131E-01  0.00000E+00  9.000E+00
      21     1     1     2   513   515 -1.304537750E+01  9.492562833E+00  8.524748564E+01  8.676073093E+01  1.348699152E-06  0.00000E+00  9.000E+00
</event>
<event>
      5  10001  2.02673E+08  2.07981E+01 -1.00000E+00  1.64938E-01
      21    -1     0     0   514   511  0.000000000E+00  0.000000000E+00  2.103742766E+02  2.103742766E+02  0.000000000E+00  0.00000E+00  9.000E+00
      21    -1     0     0   513   516  0.000000000E+00  0.000000000E+00 -7.763148549E+00  7.763148549E+00  0.000000000E+00  0.00000E+00  9.000E+00
      21     1     1     2   514   516  1.296975018E+01  3.068641376E+01  1.462397504E+02  1.499864494E+02  3.303624740E-06  0.00000E+00  9.000E+00
      21     1     1     2   513   512  2.003648081E+00 -1.827344203E+01  3.271126501E+01  3.752279505E+01  8.259061849E-07  0.00000E+00  9.000E+00
      21     1     1     2   512   511 -1.497339826E+01 -1.241297172E+01  2.366011265E+01  3.062818070E+01  3.371747881E-07  0.00000E+00  9.000E+00
</event>
<event>
      5  10001  2.02673E+08  5.92070E+00 -1.00000E+00  2.26294E-01
      21    -1     0     0   514   512  0.000000000E+00  0.000000000E+00  3.505903768E+02  3.505903768E+02  0.000000000E+00  0.00000E+00  9.000E+00
      21    -1     0     0   511   515  0.000000000E+00  0.000000000E+00 -2.642482646E+01  2.642482646E+01  0.000000000E+00  0.00000E+00  9.000E+00
      21     1     1     2   513   512 -3.521612219E+01  5.936597102E+01  2.684918776E+02  2.772226220E+02  3.814697266E-06  0.00000E+00  9.000E+00
      21     1     1     2   511   513  3.290959385E+01 -6.481891249E+01  3.985737374E+01  8.290442103E+01  2.185142372E-06  0.00000E+00  9.000E+00
      21     1     1     2   514   515  2.306528336E+00  5.452941474E+00  1.581629893E+01  1.688816022E+01  0.000000000E+00  0.00000E+00  9.000E+00
</event>
<event>
      5  10001  2.02673E+08  1.48669E+01 -1.00000E+00  1.77701E-01
      21    -1     0     0   516   511  0.000000000E+00  0.000000000E+00  1.882321949E+02  1.882321949E+02  0.000000000E+00  0.00000E+00  9.000E+00
       2    -1     0     0   512     0  0.000000000E+00  0.000000000E+00 -4.877705140E+02  4.877705140E+02  0.000000000E+00  0.00000E+00  9.000E+00
      21     1     1     2   512   513 -2.007337352E+01 -2.643296666E+01  1.762016935E+02  1.793005266E+02  4.264961200E-06  0.00000E+00  9.000E+00
       2     1     1     2   516     0  3.299950008E+01  2.118368249E+01 -4.803963873E+02  4.819943083E+02  3.300000131E-01  0.00000E+00  9.000E+00
      21     1     1     2   513   511 -1.292612656E+01  5.249284168E+00  4.656374628E+00  1.470787397E+01  3.674277069E-07  0.00000E+00  9.000E+00
</event>
<event>
      5  10001  2.02673E+08  8.16046E+00 -1.00000E+00  2.06484E-01
       2    -1     0     0   513     0  0.000000000E+00  0.000000000E+00  7.178499665E+02  7.178499665E+02  0.000000000E+00  0.00000E+00  9.000E+00
      21    -1     0     0   512   515  0.000000000E+00  0.000000000E+00 -5.057569381E+01  5.057569381E+01  0.000000000E+00  0.00000E+00  9.000E+00
      21     1     1     2   513   515  3.276045543E+01 -1.314309087E+01  4.982994872E+01  6.106563737E+01  1.348699152E-06  0.00000E+00  9.000E+00
       2     1     1     2   514     0 -3.259535255E+01  4.984306224E+00  6.616178164E+02  6.624390872E+02  3.300000131E-01  0.00000E+00  9.000E+00
      21     1     1     2   512   514 -1.651028760E-01  8.158784645E+00 -4.417349251E+01  4.492093572E+01  2.132480600E-06  0.00000E+00  9.000E+00
</event>
<event>
      5  10001  2.02673E+08  3.28411E+01 -1.00000E+00  1.50326E-01
      21    -1     0     0   511   514  0.000000000E+00  0.000000000E+00  5.722476993E+02  5.722476993E+02  0.000000000E+00  0.00000E+00  9.000E+00
      21    -1     0     0   512   516  0.000000000E+00  0.000000000E+00 -4.027020561E+01  4.027020561E+01  0.000000000E+00  0.00000E+00  9.000E+00
      21     1     1     2   511   516  8.101568971E+00 -7.108076185E+01  5.331185193E+02  5.378972632E+02  0.000000000E+00  0.00000E+00  9.000E+00
      21     1     1     2   513   514  6.791440668E+00  2.347555568E+01  2.730114817E+00  2.459021976E+01  8.487123767E-07  0.00000E+00  9.000E+00
      21     1     1     2   512   513 -1.489300964E+01  4.760520616E+01 -3.871140465E+00  5.003042193E+01  1.088498972E-06  0.00000E+00  9.000E+00
</event>
<event>
      5  10001  2.02673E+08  6.92622E+01 -1.00000E+00  1.31428E-01
       1    -1     0     0   512     0  0.000000000E+00  0.000000000E+00  1.119858032E+02  1.119858032E+02  0.000000000E+00  0.00000E+00  9.000E+00
      21    -1     0     0   515   513  0.000000000E+00  0.000000000E+00 -3.314555084E+01  3.314555084E+01  0.000000000E+00  0.00000E+00  9.000E+00
      21     1     1     2   512   513 -2.525902769E+01  2.891496670E+01  7.705004501E+01  8.608602218E+01  1.907348633E-06  0.00000E+00  9.000E+00
       1     1     1     2   511     0  1.482977333E+01 -1.137904393E+01  2.298359963E+01  2.962700743E+01  3.300000131E-01  0.00000E+00  9.000E+00
      21     1     1     2   515   511  1.042925436E+01 -1.753592277E+01 -2.119339229E+01  2.941832440E+01  9.536743164E-07  0.00000E+00  9.000E+00
</event>
<event>
      5  10001  2.02673E+08  2.23952E+01 -1.00000E+00  1.62376E-01
       2    -1     0     0   513     0  0.000000000E+00  0.000000000E+00  4.239997791E+02  4.239997791E+02  0.000000000E+00  0.00000E+00  9.000E+00
      21    -1     0     0   514   511  0.000000000E+00  0.000000000E+00 -4.406161608E+00  4.406161608E+00  0.000000000E+00  0.00000E+00  9.000E+00
      21     1     1     2   513   511  1.889671144E+01 -2.111297571E+01  5.415533952E+01  6.111991693E+01  9.536743164E-07  0.00000E+00  9.000E+00
      21     1     1     2   514   512  7.692168519E-02  1.257795390E+01  2.208878822E+02  2.212457171E+02  3.814697266E-06  0.00000E+00  9.000E+00
       2     1     1     2   512     0 -1.897363313E+01  8.535021817E+00  1.445503958E+02  1.460403067E+02  3.300000131E-01  0.00000E+00  9.000E+00
</event>
<event>
      5  10001  2.02673E+08  1.48876E+01 -1.00000E+00  1.77644E-01
      21    -1     0     0   515   511  0.000000000E+00  0.000000000E+00  1.559458924E+02  1.559458924E+02  0.000000000E+00  0.00000E+00  9.000E+00
      21    -1     0     0   517   516  0.000000000E+00  0.000000000E+00 -4.524151796E+01  4.524151796E+01  0.000000000E+00  0.00000E+00  9.000E+00
      21     1     1     2   515   516 -6.521578883E+00 -2.947079074E+01 -3.821780828E+01  4.869968550E+01  9.536743164E-07  0.00000E+00  9.000E+00
      21     1     1     2   517   513 -1.308379117E+00  1.709372836E+01  6.139439745E+01  6.374307369E+01  1.168007728E-06  0.00000E+00  9.000E+00
      21     1     1     2   513   511  7.829958000E+00  1.237706238E+01  8.752778526E+01  8.874465115E+01  1.348699152E-06  0.00000E+00  9.000E+00
</event>
<event>
      5  10001  2.02673E+08  7.87947E+00 -1.00000E+00  2.08470E-01
       1    -1     0     0   515     0  0.000000000E+00  0.000000000E+00  7.210890621E+02  7.210890621E+02  0.000000000E+00  0.00000E+00  9.000E+00
      21    -1     0     0   513   514  0.000000000E+00  0.000000000E+00 -3.382525514E+01  3.382525514E+01  0.000000000E+00  0.00000E+00  9.000E+00
      21     1     1     2   513   512  2.526826710E+01  1.956606987E+01 -2.533477516E+01  4.078194754E+01  2.105655877E-06  0.00000E+00  9.000E+00
       1     1     1     2   512     0 -2.432134720E+01 -2.738841807E+01  4.779835183E+02  4.793850290E+02  3.300000131E-01  0.00000E+00  9.000E+00
      21     1     1     2   515   514 -9.469199088E-01  7.822348201E+00  2.346150638E+02  2.347473407E+02  4.672030912E-06  0.00000E+00  9.000E+00
</event>
<event>
      5  10001  2.02673E+08  2.21833E+01 -1.00000E+00  1.62700E-01
      21    -1     0     0   511   513  0.000000000E+00  0.000000000E+00  1.820590553E+01  1.820590553E+01  0.000000000E+00  0.00000E+00  9.000E+00
      21    -1     0     0   512   511  0.000000000E+00  0.000000000E+00 -6.335176911E+02  6.335176911E+02  0.000000000E+00  0.00000E+00  9.000E+00
      21     1     1     2   514   513  6.565930953E-01 -2.205356728E+01  8.043156822E+00  2.348368191E+01  1.415531884E-06  0.00000E+00  9.000E+00
      21     1     1     2   516   514  2.060573261E-01  4.422008104E+01 -5.454103037E+02  5.472000159E+02  0.000000000E+00  0.00000E+00  9.000E+00
      21     1     1     2   512   516 -8.626504215E-01 -2.216651376E+01 -7.794463872E+01  8.103989883E+01  0.000000000E+00  0.00000E+00  9.000E+00
</event>
<event>
      5  10001  2.02673E+08  1.63803E+01 -1.00000E+00  1.73810E-01
      21    -1     0     0   515   514  0.000000000E+00  0.000000000E+00  1.227367592E+02  1.227367592E+02  0.000000000E+00  0.00000E+00  9.000E+00
      -2    -1     0     0     0   515  0.000000000E+00  0.000000000E+00 -2.179020087E+02  2.179020087E+02  0.000000000E+00  0.00000E+00  9.000E+00
      21     1     1     2   516   514 -6.833876581E+01 -4.974169473E+01  9.330770864E+01  1.258997681E+02  3.568322551E-06  0.00000E+00  9.000E+00
      21     1     1     2   512   516  7.304102985E+01  3.405089784E+01 -1.215405296E+02  1.458305730E+02  4.264961200E-06  0.00000E+00  9.000E+00
      -2     1     1     2     0   512 -4.702264042E+00  1.569079689E+01 -6.693242855E+01  6.890842682E+01  3.300000131E-01  0.00000E+00  9.000E+00
</event>
<event>
      5  10001  2.02673E+08  6.16608E+00 -1.00000E+00  2.23569E-01
      21    -1     0     0   511   512  0.000000000E+00  0.000000000E+00  1.283401347E+01  1.283401347E+01  0.000000000E+00  0.00000E+00  9.000E+00
       1    -1     0     0   513     0  0.000000000E+00  0.000000000E+00 -3.765178180E+02  3.765178180E+02  0.000000000E+00  0.00000E+00  9.000E+00
      21     1     1     2   513   514  4.500640140E+01  1.656454247E+01 -1.975226865E+02  2.032613389E+02  3.814697266E-06  0.00000E+00  9.000E+00
       1     1     1     2   511     0 -6.142202976E+01 -2.218706125E+01 -1.175188092E+02  1.344459402E+02  3.300000131E-01  0.00000E+00  9.000E+00
      21     1     1     2   514   512  1.641562836E+01  5.622518778E+00 -4.864230885E+01  5.164455230E+01  6.743495762E-07  0.00000E+00  9.000E+00
</event>
<event>
      5  10001  2.02673E+08  5.00989E+00 -1.00000E+00  2.38279E-01
       2    -1     0     0   514     0  0.000000000E+00  0.000000000E+00  5.450014861E+02  5.450014861E+02  0.000000000E+00  0.00000E+00  9.000E+00
       1    -1     0     0   512     0  0.000000000E+00  0.000000000E+00 -6.230537530E+00  6.230537530E+00  0.000000000E+00  0.00000E+00  9.000E+00
       1     1     1     2   511     0  2.776560737E+00  2.132450183E+01  2.180931404E+01  3.063003015E+01  3.300000131E-01  0.00000E+00  9.000E+00
       2     1     1     2   512     0 -4.819730677E+00 -3.210213390E+01  4.949005271E+02  4.959641292E+02  3.300000131E-01  0.00000E+00  9.000E+00
      21     1     1     2   514   511  2.043169940E+00  1.077763207E+01  2.206110739E+01  2.463786427E+01  7.539457465E-07  0.00000E+00  9.000E+00
</event>
<event>
      5  10001  2.02673E+08  1.75852E+01 -1.00000E+00  1.71072E-01
      21    -1     0     0   513   511  0.000000000E+00  0.000000000E+00  2.624449056E+02  2.624449056E+02  0.000000000E+00  0.00000E+00  9.000E+00
      21    -1     0     0   515   513  0.000000000E+00  0.000000000E+00 -8.605365779E+01  8.605365779E+01  0.000000000E+00  0.00000E+00  9.000E+00
      21     1     1     2   512   511  1.338585542E+01 -3.105877149E+01  2.543302875E+02  2.565691399E+02  3.814697266E-06  0.00000E+00  9.000E+00
      21     1     1     2   515   516 -8.680803986E+00  1.204886365E+01 -6.868040759E+01  7.026755908E+01  0.000000000E+00  0.00000E+00  9.000E+00
      21     1     1     2   516   512 -4.705051431E+00  1.900990784E+01 -9.258632030E+00  2.166186446E+01  4.915124924E-07  0.00000E+00  9.000E+00
</event>
<event>
      5  10001  2.02673E+08  1.60772E+00 -1.00000E+00  4.13731E-01
       2    -1     0     0   511     0  0.000000000E+00  0.000000000E+00  1.120211666E+02  1.120211666E+02  0.000000000E+00  0.00000E+00  9.000E+00
      -2    -1     0     0     0   512  0.000000000E+00  0.000000000E+00 -2.696810714E+01  2.696810714E+01  0.000000000E+00  0.00000E+00  9.000E+00
      -2     1     1     2     0   513  1.736208086E+01 -4.666866054E+01  1.880368364E+01  5.322680854E+01  3.300000131E-01  0.00000E+00  9.000E+00
       2     1     1     2   513     0 -1.878146612E+01  4.742366072E+01  5.748979096E+01  7.685656791E+01  3.300000131E-01  0.00000E+00  9.000E+00
      21     1     1     2   511   512  1.419385263E+00 -7.550001793E-01  8.759584847E+00  8.905897287E+00  0.000000000E+00  0.00000E+00  9.000E+00
</event>
<event>
      5  10001  2.02673E+08  4.74285E+01 -1.00000E+00  1.40367E-01
      21    -1     0     0   514   513  0.000000000E+00  0.000000000E+00  6.243716040E+01  6.243716040E+01  0.000000000E+00  0.00000E+00  9.000E+00
      21    -1     0     0   515   514  0.000000000E+00  0.000000000E+00 -5.212083714E+02  5.212083714E+02  0.000000000E+00  0.00000E+00  9.000E+00
      21     1     1     2   515   512 -1.010489717E+01 -2.884007520E+01 -4.889708751E+02  4.899248672E+02  1.078959322E-05  0.00000E+00  9.000E+00
      21     1     1     2   512   516  1.086968013E+01  5.719201822E+01  2.969963930E+01  6.535400117E+01  1.011524364E-06  0.00000E+00  9.000E+00
      21     1     1     2   516   513 -7.647829640E-01 -2.835194302E+01  5.000247753E-01  2.836666337E+01  7.814234854E-08  0.00000E+00  9.000E+00
</event>
<event>
      5  10001  2.02673E+08  1.18433E+01 -1.00000E+00  1.87577E-01
      21    -1     0     0   511   513  0.000000000E+00  0.000000000E+00  1.345258763E+02  1.345258763E+02  0.000000000E+00  0.00000E+00  9.000E+00
      21    -1     0     0   512   514  0.000000000E+00  0.000000000E+00 -6.024410676E+01  6.024410676E+01  0.000000000E+00  0.00000E+00  9.000E+00
      21     1     1     2   512   513  1.831045462E+01 -3.890367742E+01  8.880487018E+01  9.866647776E+01  9.536743164E-07  0.00000E+00  9.000E+00
       4     1     1     2   511     0 -1.218076225E+01  4.903418257E+01  2.386896804E+01  5.589901309E+01  1.500000000E+00  0.00000E+00  9.000E+00
      -4     1     1     2     0   514 -6.129692368E+00 -1.013050515E+01 -3.839206864E+01  4.020449226E+01  1.500000000E+00  0.00000E+00  9.000E+00
</event>
<event>
      5  10001  2.02673E+08  5.94005E+01 -1.00000E+00  1.34910E-01
      21    -1     0     0   515   513  0.000000000E+00  0.000000000E+00  1.560870588E+01  1.560870588E+01  0.000000000E+00  0.00000E+00  9.000E+00
      21    -1     0     0   512   516  0.000000000E+00  0.000000000E+00 -1.088459388E+02  1.088459388E+02  0.000000000E+00  0.00000E+00  9.000E+00
      21     1     1     2   515   516 -2.877424190E+01 -5.676787066E+00 -6.377236286E+01  7.019328439E+01  9.536743164E-07  0.00000E+00  9.000E+00
      21     1     1     2   511   513  4.030920931E+00 -1.133423975E+01 -1.895176671E+01  2.244733338E+01  0.000000000E+00  0.00000E+00  9.000E+00
      21     1     1     2   512   511  2.474332097E+01  1.701102682E+01 -1.051310334E+01  3.181402690E+01  5.717076687E-07  0.00000E+00  9.000E+00
</event>
<event>
      5  10001  2.02673E+08  3.31052E+01 -1.00000E+00  1.50093E-01
       2    -1     0     0   512     0  0.000000000E+00  0.000000000E+00  8.617015705E+02  8.617015705E+02  0.000000000E+00  0.00000E+00  9.000E+00
      21    -1     0     0   514   511  0.000000000E+00  0.000000000E+00 -1.509729672E+00  1.509729672E+00  0.000000000E+00  0.00000E+00  9.000E+00
      21     1     1     2   512   511 -1.675174907E+01 -1.196382137E+01  1.414385103E+02  1.429286756E+02  0.000000000E+00  0.00000E+00  9.000E+00
       2     1     1     2   513     0  1.319129081E+01  1.748348392E+00  6.776125076E+02  6.777432303E+02  3.300000131E-01  0.00000E+00  9.000E+00
      21     1     1     2   514   513  3.560458255E+00  1.021547298E+01  4.114082295E+01  4.253939426E+01  1.430511475E-06  0.00000E+00  9.000E+00
</event>
<event>
      5  10001  2.02673E+08  1.19307E+01 -1.00000E+00  1.87240E-01
      21    -1     0     0   514   513  0.000000000E+00  0.000000000E+00  1.516659941E+01  1.516659941E+01  0.000000000E+00  0.00000E+00  9.000E+00
       2    -1     0     0   515     0  0.000000000E+00  0.000000000E+00 -4.776745662E+02  4.776745662E+02  0.000000000E+00  0.00000E+00  9.000E+00
      21     1     1     2   515   511 -2.079667903E+01  3.562282393E+01 -3.021429107E+01  5.113111409E+01  3.371747881E-07  0.00000E+00  9.000E+00
       2     1     1     2   514     0  1.714515602E+01 -4.135619411E+01 -4.325953778E+02  4.349059220E+02  3.300000131E-01  0.00000E+00  9.000E+00
      21     1     1     2   511   513  3.651523012E+00  5.733370178E+00  3.017021383E-01  6.804129487E+00  7.431930804E-08  0.00000E+00  9.000E+00
</event>
<event>
      5  10001  2.02673E+08  8.03360E+00 -1.00000E+00  2.07367E-01
      21    -1     0     0   512   514  0.000000000E+00  0.000000000E+00  6.926493161E+01  6.926493161E+01  0.000000000E+00  0.00000E+00  9.000E+00
      21    -1     0     0   513   512  0.000000000E+00  0.000000000E+00 -2.804390824E+01  2.804390824E+01  0.000000000E+00  0.00000E+00  9.000E+00
      21     1     1     2   513   515 -5.819670964E+00 -3.191450541E+01 -5.039902291E+00  3.282993817E+01  3.097148194E-07  0.00000E+00  9.000E+00
      21     1     1     2   515   511 -2.035359560E+00  3.023012025E+01  1.832130123E+01  3.540724414E+01  8.259061849E-07  0.00000E+00  9.000E+00
      21     1     1     2   511   514  7.855030524E+00  1.684385152E+00  2.793962444E+01  2.907165753E+01  5.840038640E-07  0.00000E+00  9.000E+00
</event>
<event>
      5  10001  2.02673E+08  5.40087E+01 -1.00000E+00  1.37163E-01
       5    -1     0     0   512     0  0.000000000E+00  0.000000000E+00  4.257320977E+02  4.257320977E+02  0.000000000E+00  0.00000E+00  9.000E+00
      21    -1     0     0   515   512  0.000000000E+00  0.000000000E+00 -2.906159291E+01  2.906159291E+01  0.000000000E+00  0.00000E+00  9.000E+00
      21     1     1     2   513   511 -4.427663477E+01 -1.655411366E+01  6.807793751E+01  8.287982047E+01  1.348699152E-06  0.00000E+00  9.000E+00
       5     1     1     2   511     0  9.312453552E+01 -2.180075371E+00  2.958272358E+02  3.101833737E+02  4.800000191E+00  0.00000E+00  9.000E+00
      21     1     1     2   515   513 -4.884790074E+01  1.873418903E+01  3.276533139E+01  6.173049641E+01  1.168007728E-06  0.00000E+00  9.000E+00
</event>
<event>
      5  10001  2.02673E+08  4.92289E+01 -1.00000E+00  1.39433E-01
      21    -1     0     0   514   515  0.000000000E+00  0.000000000E+00  2.372727609E+01  2.372727609E+01  0.000000000E+00  0.00000E+00  9.000E+00
      21    -1     0     0   513   514  0.000000000E+00  0.000000000E+00 -4.190153988E+01  4.190153988E+01  0.000000000E+00  0.00000E+00  9.000E+00
      -5     1     1     2     0   515 -1.257235681E+01  1.873909647E+01 -3.661883939E+00  2.335952243E+01  4.800000191E+00  0.00000E+00  9.000E+00
       5     1     1     2   511     0  6.957237428E+00  5.811106838E+00  4.003612340E+00  1.101095041E+01  4.800000191E+00  0.00000E+00  9.000E+00
      21     1     1     2   513   511  5.615119385E+00 -2.455020331E+01 -1.851599219E+01  3.125834313E+01  6.307962682E-07  0.00000E+00  9.000E+00
</event>
<event>
      5  10001  2.02673E+08  2.17972E+01 -1.00000E+00  1.63303E-01
      21    -1     0     0   511   514  0.000000000E+00  0.000000000E+00  3.832876628E+01  3.832876628E+01  0.000000000E+00  0.00000E+00  9.000E+00
       2    -1     0     0   513     0  0.000000000E+00  0.000000000E+00 -1.961380805E+02  1.961380805E+02  0.000000000E+00  0.00000E+00  9.000E+00
      21     1     1     2   511   512 -4.805756780E+01 -5.034171459E+00  1.308508049E+01  5.006088330E+01  8.259061849E-07  0.00000E+00  9.000E+00
       2     1     1     2   512     0  2.656397864E+01  8.658893054E+00 -1.548240075E+02  1.573251525E+02  3.300000131E-01  0.00000E+00  9.000E+00
      21     1     1     2   513   514  2.149358916E+01 -3.624721595E+00 -1.607038717E+01  2.708081102E+01  2.384185791E-07  0.00000E+00  9.000E+00
</event>
<event>
      5  10001  2.02673E+08  3.31700E+01 -1.00000E+00  1.50037E-01
       2    -1     0     0   512     0  0.000000000E+00  0.000000000E+00  4.486236733E+02  4.486236733E+02  0.000000000E+00  0.00000E+00  9.000E+00
      21    -1     0     0   515   516  0.000000000E+00  0.000000000E+00 -2.040699444E+00  2.040699444E+00  0.000000000E+00  0.00000E+00  9.000E+00
       5     1     1     2   512     0  1.768304267E+01 -1.766348016E+00  2.110105104E+02  2.118119106E+02  4.800000191E+00  0.00000E+00  9.000E+00
       2     1     1     2   515     0 -1.153967502E+01  1.691628612E+01  1.643113529E+02  1.655827721E+02  3.300000131E-01  0.00000E+00  9.000E+00
      -5     1     1     2     0   516 -6.143367647E+00 -1.514993810E+01  7.126111055E+01  7.326968997E+01  4.800000191E+00  0.00000E+00  9.000E+00
</event>
<event>
      5  10001  2.02673E+08  1.81533E+01 -1.00000E+00  1.69874E-01
       2    -1     0     0   514     0  0.000000000E+00  0.000000000E+00  1.186170226E+02  1.186170226E+02  0.000000000E+00  0.00000E+00  9.000E+00
       1    -1     0     0   511     0  0.000000000E+00  0.000000000E+00 -3.850444747E+02  3.850444747E+02  0.000000000E+00  0.00000E+00  9.000E+00
      21     1     1     2   514   513  5.548384903E+00  2.749365411E+01  3.276068874E+01  4.312711813E+01  4.768371582E-07  0.00000E+00  9.000E+00
       2     1     1     2   511     0 -7.359303600E+00 -4.555637667E+01  7.383457304E+01  8.707006306E+01  3.300000131E-01  0.00000E+00  9.000E+00
       1     1     1     2   513     0  1.810918697E+00  1.806272256E+01 -3.730227139E+02  3.734643161E+02  3.300000131E-01  0.00000E+00  9.000E+00
</event>
<event>
      5  10001  2.02673E+08  1.33090E+01 -1.00000E+00  1.82371E-01
      21    -1     0     0   512   511  0.000000000E+00  0.000000000E+00  7.400793439E+00  7.400793439E+00  0.000000000E+00  0.00000E+00  9.000E+00
      21    -1     0     0   513   515  0.000000000E+00  0.000000000E+00 -4.305214426E+02  4.305214426E+02  0.000000000E+00  0.00000E+00  9.000E+00
      21     1     1     2   512   515  2.224948340E+01  4.294313735E+01 -1.012625294E+02  1.122196614E+02  1.348699152E-06  0.00000E+00  9.000E+00
      21     1     1     2   513   514 -7.684259643E+00 -1.756605681E+01 -1.676732852E+02  1.687659467E+02  1.907348633E-06  0.00000E+00  9.000E+00
      21     1     1     2   514   511 -1.456522376E+01 -2.537708053E+01 -1.541848346E+02  1.569366279E+02  1.907348633E-06  0.00000E+00  9.000E+00
</event>
<event>
      5  10001  2.02673E+08  1.66461E+01 -1.00000E+00  1.73181E-01
      21    -1     0     0   512   513  0.000000000E+00  0.000000000E+00  1.708495765E+02  1.708495765E+02  0.000000000E+00  0.00000E+00  9.000E+00
      21    -1     0     0   517   511  0.000000000E+00  0.000000000E+00 -2.436147979E+02  2.436147979E+02  0.000000000E+00  0.00000E+00  9.000E+00
      21     1     1     2   516   511 -1.544858231E+01 -4.480605723E+01 -8.737834042E+01  9.940430491E+01  0.000000000E+00  0.00000E+00  9.000E+00
      21     1     1     2   517   513  9.556897489E+00  2.923748611E+01 -1.482201016E+02  1.513782131E+02  1.907348633E-06  0.00000E+00  9.000E+00
      21     1     1     2   512   516  5.891684825E+00  1.556857112E+01  1.628332206E+02  1.636818563E+02  0.000000000E+00  0.00000E+00  9.000E+00
</event>
<event>
      5  10001  2.02673E+08  2.52325E+01 -1.00000E+00  1.58413E-01
      21    -1     0     0   514   511  0.000000000E+00  0.000000000E+00  4.356764074E+02  4.356764074E+02  0.000000000E+00  0.00000E+00  9.000E+00
      21    -1     0     0   513   515  0.000000000E+00  0.000000000E+00 -1.828530624E+01  1.828530624E+01  0.000000000E+00  0.00000E+00  9.000E+00
      21     1     1     2   514   515  9.287762787E-01  6.776348963E+01  3.058788225E+02  3.132963569E+02  8.529922400E-06  0.00000E+00  9.000E+00
      21     1     1     2   516   511  1.095147182E+01 -4.550279767E+01  1.044607024E+02  1.144660547E+02  3.015782986E-06  0.00000E+00  9.000E+00
      21     1     1     2   513   516 -1.188024810E+01 -2.226069196E+01  7.051576202E+00  2.619930206E+01  8.085167388E-07  0.00000E+00  9.000E+00
</event>
<event>
      5  10001  2.02673E+08  9.41037E+01 -1.00000E+00  1.25004E-01
      -1    -1     0     0     0   512  0.000000000E+00  0.000000000E+00  6.735791005E+01  6.735791005E+01  0.000000000E+00  0.00000E+00  9.000E+00
      21    -1     0     0   512   514  0.000000000E+00  0.000000000E+00 -1.127368300E+02  1.127368300E+02  0.000000000E+00  0.00000E+00  9.000E+00
      21     1     1     2   515   511 -5.972693933E+01 -2.794562127E+01 -2.469178026E+01  7.041270512E+01  4.768371582E-07  0.00000E+00  9.000E+00
      21     1     1     2   511   514  4.071928656E+01  5.870605353E+00 -5.239915020E+01  6.661978119E+01  6.743495762E-07  0.00000E+00  9.000E+00
      -1     1     1     2     0   515  1.900765277E+01  2.207501592E+01  3.171201047E+01  4.306225377E+01  3.300000131E-01  0.00000E+00  9.000E+00
</event>
<event>
      5  10001  2.02673E+08  2.05278E+01 -1.00000E+00  1.65400E-01
      -3    -1     0     0     0   513  0.000000000E+00  0.000000000E+00  7.324323668E+01  7.324323668E+01  0.000000000E+00  0.00000E+00  9.000E+00
      21    -1     0     0   515   514  0.000000000E+00  0.000000000E+00 -1.427291389E+01  1.427291389E+01  0.000000000E+00  0.00000E+00  9.000E+00
      -3     1     1     2     0   514 -2.616469409E+01 -4.338937754E+00  3.816263586E+01  4.647638511E+01  5.000000000E-01  0.00000E+00  9.000E+00
      21     1     1     2   511   513  1.203482655E+01  3.317128420E+00 -3.447080440E+00  1.295078200E+01  8.429369702E-08  0.00000E+00  9.000E+00
      21     1     1     2   515   511  1.412986755E+01  1.021809334E+00  2.425476737E+01  2.808898345E+01  3.371747881E-07  0.00000E+00  9.000E+00
</event>
<event>
      5  10001  2.02673E+08  2.39854E+01 -1.00000E+00  1.60072E-01
      21    -1     0     0   511   513  0.000000000E+00  0.000000000E+00  2.126345355E+01  2.126345355E+01  0.000000000E+00  0.00000E+00  9.000E+00
       2    -1     0     0   513     0  0.000000000E+00  0.000000000E+00 -4.643153795E+02  4.643153795E+02  0.000000000E+00  0.00000E+00  9.000E+00
      21     1     1     2   511   512  7.608700351E+00 -3.434983478E+01  2.915191747E+00  3.530300007E+01  1.789628839E-06  0.00000E+00  9.000E+00
       2     1     1     2   514     0 -2.415159279E+01  2.833796574E+01 -3.856394029E+02  3.874328300E+02  3.300000131E-01  0.00000E+00  9.000E+00
      21     1     1     2   512   514  1.654289244E+01  6.011869048E+00 -6.032771479E+01  6.284300304E+01  9.536743164E-07  0.00000E+00  9.000E+00
</event>
<event>
      5  10001  2.02673E+08  2.93048E+01 -1.00000E+00  1.53715E-01
      21    -1     0     0   515   516  0.000000000E+00  0.000000000E+00  2.288484425E+01  2.288484425E+01  0.000000000E+00  0.00000E+00  9.000E+00
      21    -1     0     0   513   515  0.000000000E+00  0.000000000E+00 -5.731768736E+02  5.731768736E+02  0.000000000E+00  0.00000E+00  9.000E+00
      21     1     1     2   514   516  5.655748381E+01  1.950951670E+01 -2.789843625E+01  6.601282422E+01  1.784161275E-06  0.00000E+00  9.000E+00
      21     1     1     2   511   514 -6.299333720E+01 -7.868993967E-01 -4.668700141E+02  4.711012522E+02  5.394796609E-06  0.00000E+00  9.000E+00
      21     1     1     2   513   511  6.435853392E+00 -1.872261730E+01 -5.552357902E+01  5.894764147E+01  6.743495762E-07  0.00000E+00  9.000E+00
</event>
<event>
      5  10001  2.02673E+08  2.32470E+01 -1.00000E+00  1.61114E-01
      21    -1     0     0   512   511  0.000000000E+00  0.000000000E+00  1.470695048E+01  1.470695048E+01  0.000000000E+00  0.00000E+00  9.000E+00
      21    -1     0     0   513   517  0.000000000E+00  0.000000000E+00 -1.790092116E+02  1.790092116E+02  0.000000000E+00  0.00000E+00  9.000E+00
      21     1     1     2   512   517 -1.844381213E+00  4.423141336E+01 -3.417613729E+01  5.592698839E+01  1.168007728E-06  0.00000E+00  9.000E+00
      21     1     1     2   513   514 -2.193241612E+00 -7.157396500E+00 -1.483980389E+01  1.662102322E+01  2.384185791E-07  0.00000E+00  9.000E+00
      21     1     1     2   514   511  4.037622825E+00 -3.707401686E+01 -1.152863200E+02  1.211681505E+02  0.000000000E+00  0.00000E+00  9.000E+00
</event>
<event>
      5  10001  2.02673E+08  2.25162E+01 -1.00000E+00  1.62192E-01
       2    -1     0     0   513     0  0.000000000E+00  0.000000000E+00  1.185310280E+03  1.185310280E+03  0.000000000E+00  0.00000E+00  9.000E+00
      21    -1     0     0   514   515  0.000000000E+00  0.000000000E+00 -5.433314249E+00  5.433314249E+00  0.000000000E+00  0.00000E+00  9.000E+00
      21     1     1     2   512   515  2.259163241E+01 -1.172771346E+01  6.848944291E+01  7.306657860E+01  1.651812370E-06  0.00000E+00  9.000E+00
       2     1     1     2   514     0 -2.680282476E+01  2.605063752E+01  1.094494279E+03  1.095132349E+03  3.300000131E-01  0.00000E+00  9.000E+00
      21     1     1     2   513   512  4.211192353E+00 -1.432292406E+01  1.689324451E+01  2.254466688E+01  8.259061849E-07  0.00000E+00  9.000E+00
</event>
<event>
      5  10001  2.02673E+08  5.55140E+00 -1.00000E+00  2.30762E-01
      -2    -1     0     0     0   511  0.000000000E+00  0.000000000E+00  1.708216157E+01  1.708216157E+01  0.000000000E+00  0.00000E+00  9.000E+00
       2    -1     0     0   511     0  0.000000000E+00  0.000000000E+00 -2.088872463E+02  2.088872463E+02  0.000000000E+00  0.00000E+00  9.000E+00
      -2     1     1     2     0   512 -3.033391309E+01  2.147393160E+01 -9.562968035E+00  3.837753613E+01  3.300000131E-01  0.00000E+00  9.000E+00
       2     1     1     2   514     0  2.966505437E+01 -2.386424315E+01 -1.807046897E+02  1.846721726E+02  3.300000131E-01  0.00000E+00  9.000E+00
      21     1     1     2   512   514  6.688587137E-01  2.390311543E+00 -1.537426969E+00  2.919699118E+00  2.107342426E-08  0.00000E+00  9.000E+00
</event>
<event>
      5  10001  2.02673E+08  1.34206E+01 -1.00000E+00  1.82010E-01
      21    -1     0     0   513   512  0.000000000E+00  0.000000000E+00  2.476574527E+01  2.476574527E+01  0.000000000E+00  0.00000E+00  9.000E+00
      21    -1     0     0   511   513  0.000000000E+00  0.000000000E+00 -7.827449864E+01  7.827449864E+01  0.000000000E+00  0.00000E+00  9.000E+00
      21     1     1     2   511   515  3.776058512E+01  6.284232502E-02 -5.053194649E+01  6.308203670E+01  6.743495762E-07  0.00000E+00  9.000E+00
      21     1     1     2   515   516 -1.649968387E+01  5.726358216E+00  1.294569439E+00  1.751304247E+01  2.987673529E-07  0.00000E+00  9.000E+00
      21     1     1     2   516   512 -2.126090125E+01 -5.789200541E+00 -4.271376319E+00  2.244516475E+01  5.430241572E-07  0.00000E+00  9.000E+00
</event>
<event>
      5  10001  2.02673E+08  3.22635E+00 -1.00000E+00  2.87470E-01
      21    -1     0     0   511   512  0.000000000E+00  0.000000000E+00  7.107445501E+00  7.107445501E+00  0.000000000E+00  0.00000E+00  9.000E+00
      21    -1     0     0   512   513  0.000000000E+00  0.000000000E+00 -6.821758198E+02  6.821758198E+02  0.000000000E+00  0.00000E+00  9.000E+00
      -1     1     1     2     0   513  2.840725248E+01 -1.339121063E+01 -6.307729761E+02  6.315543942E+02  3.300000131E-01  0.00000E+00  9.000E+00
       1     1     1     2   514     0 -2.832903000E+01  1.661657223E+01 -4.331006684E+01  5.435545238E+01  3.300000131E-01  0.00000E+00  9.000E+00
      21     1     1     2   511   514 -7.822248108E-02 -3.225361597E+00 -9.853313575E-01  3.373418751E+00  2.274563539E-07  0.00000E+00  9.000E+00
</event>
<event>
      5  10001  2.02673E+08  1.35984E+01 -1.00000E+00  1.81443E-01
       2    -1     0     0   511     0  0.000000000E+00  0.000000000E+00  4.501356204E+01  4.501356204E+01  0.000000000E+00  0.00000E+00  9.000E+00
      -3    -1     0     0     0   511  0.000000000E+00  0.000000000E+00 -8.996857441E+01  8.996857441E+01  0.000000000E+00  0.00000E+00  9.000E+00
      -3     1     1     2     0   513 -1.380305788E+01  7.114023473E+00 -6.564637083E+01  6.745983798E+01  5.000000000E-01  0.00000E+00  9.000E+00
       2     1     1     2   512     0  2.872655896E+01 -1.180522395E+01  3.466678283E+01  4.654538896E+01  3.300000131E-01  0.00000E+00  9.000E+00
      21     1     1     2   513   512 -1.492350108E+01  4.691200479E+00 -1.397542436E+01  2.097690951E+01  1.685873940E-07  0.00000E+00  9.000E+00
</event>
<event>
      5  10001  2.02673E+08  5.18671E+00 -1.00000E+00  2.35681E-01
      -5    -1     0     0     0   516  0.000000000E+00  0.000000000E+00  2.840270261E+01  2.840270261E+01  0.000000000E+00  0.00000E+00  9.000E+00
      21    -1     0     0   514   511  0.000000000E+00  0.000000000E+00 -5.104477362E+01  5.104477362E+01  0.000000000E+00  0.00000E+00  9.000E+00
      -5     1     1     2     0   515 -2.670950995E+01 -1.977229727E+01 -3.197053868E+00  3.372836812E+01  4.800000191E+00  0.00000E+00  9.000E+00
      21     1     1     2   515   511  2.609594684E+01  1.464519953E+01 -2.436311278E+01  3.858810147E+01  0.000000000E+00  0.00000E+00  9.000E+00
      21     1     1     2   514   516  6.135631038E-01  5.127097742E+00  4.918095642E+00  7.131006639E+00  1.192092896E-07  0.00000E+00  9.000E+00
</event>
<event>
      5  10001  2.02673E+08  7.80994E+00 -1.00000E+00  2.08978E-01
      21    -1     0     0   512   511  0.000000000E+00  0.000000000E+00  5.228328809E+01  5.228328809E+01  0.000000000E+00  0.00000E+00  9.000E+00
      21    -1     0     0   513   512  0.000000000E+00  0.000000000E+00 -6.302954464E+01  6.302954464E+01  0.000000000E+00  0.00000E+00  9.000E+00
      21     1     1     2   514   511 -2.310984022E+01 -5.110012817E+01  5.267473858E+00  5.632969106E+01  3.318646170E-07  0.00000E+00  9.000E+00
      21     1     1     2   513   515  1.005834780E+01  3.049375967E+01 -6.265148424E+00  3.271531483E+01  5.778884718E-07  0.00000E+00  9.000E+00
      21     1     1     2   515   514  1.305149241E+01  2.060636850E+01 -9.748581982E+00  2.626782685E+01  3.371747881E-07  0.00000E+00  9.000E+00
</event>
<event>
      5  10001  2.02673E+08  1.41965E+01 -1.00000E+00  1.79617E-01
       1    -1     0     0   513     0  0.000000000E+00  0.000000000E+00  1.002514532E+03  1.002514532E+03  0.000000000E+00  0.00000E+00  9.000E+00
      21    -1     0     0   515   512  0.000000000E+00  0.000000000E+00 -2.838642280E+00  2.838642280E+00  0.000000000E+00  0.00000E+00  9.000E+00
      21     1     1     2   513   511 -1.154431503E+01 -8.220805990E+00  9.384237502E+01  9.490650247E+01  1.907348633E-06  0.00000E+00  9.000E+00
       1     1     1     2   515     0  3.709465289E+01  2.320770193E+01  7.778573871E+02  7.790871801E+02  3.300000131E-01  0.00000E+00  9.000E+00
      21     1     1     2   511   512 -2.555033786E+01 -1.498689594E+01  1.279761274E+02  1.313594914E+02  3.015782986E-06  0.00000E+00  9.000E+00
</event>
<event>
      5  10001  2.02673E+08  3.69054E+01 -1.00000E+00  1.47011E-01
      21    -1     0     0   514   515  0.000000000E+00  0.000000000E+00  4.425297304E+00  4.425297304E+00  0.000000000E+00  0.00000E+00  9.000E+00
      21    -1     0     0   516   514  0.000000000E+00  0.000000000E+00 -2.810598874E+02  2.810598874E+02  0.000000000E+00  0.00000E+00  9.000E+00
      21     1     1     2   512   515 -1.068725031E+01  2.559732592E+01 -1.273725884E+02  1.303580327E+02  1.907348633E-06  0.00000E+00  9.000E+00
      21     1     1     2   516   513  9.472995418E+00 -8.465329950E+00 -1.235808680E+02  1.242321633E+02  2.336015456E-06  0.00000E+00  9.000E+00
      21     1     1     2   513   512  1.214254896E+00 -1.713199597E+01 -2.568113361E+01  3.089498866E+01  3.371747881E-07  0.00000E+00  9.000E+00
</event>
<event>
      5  10001  2.02673E+08  2.48076E+01 -1.00000E+00  1.58965E-01
      21    -1     0     0   511   512  0.000000000E+00  0.000000000E+00  4.753198401E+01  4.753198401E+01  0.000000000E+00  0.00000E+00  9.000E+00
      21    -1     0     0   517   511  0.000000000E+00  0.000000000E+00 -3.941032505E+01  3.941032505E+01  0.000000000E+00  0.00000E+00  9.000E+00
      21     1     1     2   516   512 -2.412027506E+01  3.251380544E+01  1.795677754E+01  4.428748212E+01  3.371747881E-07  0.00000E+00  9.000E+00
      21     1     1     2   517   514  3.076297138E-01 -4.218566969E+00 -2.620518266E+00  4.975747109E+00  7.300048300E-08  0.00000E+00  9.000E+00
      21     1     1     2   514   516  2.381264534E+01 -2.829523847E+01 -7.214600313E+00  3.767907982E+01  8.760057960E-07  0.00000E+00  9.000E+00
</event>
<event>
      5  10001  2.02673E+08  1.79553E+01 -1.00000E+00  1.70285E-01
      21    -1     0     0   512   513  0.000000000E+00  0.000000000E+00  3.512985405E+01  3.512985405E+01  0.000000000E+00  0.00000E+00  9.000E+00
      21    -1     0     0   514   511  0.000000000E+00  0.000000000E+00 -1.659132054E+02  1.659132054E+02  0.000000000E+00  0.00000E+00  9.000E+00
      -3     1     1     2     0   511  3.266955909E+01  2.577806397E+01 -6.840843014E+01  8.007354112E+01  5.000000000E-01  0.00000E+00  9.000E+00
      21     1     1     2   514   513 -4.301229625E+01 -4.045445001E+01 -7.753925793E+01  9.746259116E+01  1.348699152E-06  0.00000E+00  9.000E+00
       3     1     1     2   512     0  1.034273716E+01  1.467638604E+01  1.516433669E+01  2.350692720E+01  5.000000000E-01  0.00000E+00  9.000E+00
</event>
<event>
      5  10001  2.02673E+08  8.22058E+01 -1.00000E+00  1.27756E-01
       2    -1     0     0   511     0  0.000000000E+00  0.000000000E+00  4.587998117E+02  4.587998117E+02  0.000000000E+00  0.00000E+00  9.000E+00
      21    -1     0     0   515   511  0.000000000E+00  0.000000000E+00 -6.914774079E+00  6.914774079E+00  0.000000000E+00  0.00000E+00  9.000E+00
      21     1     1     2   515   512 -1.357149322E+01  2.642981552E+01  5.162033572E+01  5.955988277E+01  1.168007728E-06  0.00000E+00  9.000E+00
      21     1     1     2   512   513  2.535331836E+01  6.583230859E+00  8.493082053E+01  8.887842233E+01  0.000000000E+00  0.00000E+00  9.000E+00
       2     1     1     2   513     0 -1.178182513E+01 -3.301304638E+01  3.153338814E+02  3.172762807E+02  3.300000131E-01  0.00000E+00  9.000E+00
</event>
<event>
      5  10001  2.02673E+08  1.31126E+01 -1.00000E+00  1.83018E-01
      21    -1     0     0   512   514  0.000000000E+00  0.000000000E+00  7.431005329E+01  7.431005329E+01  0.000000000E+00  0.00000E+00  9.000E+00
       1    -1     0     0   514     0  0.000000000E+00  0.000000000E+00 -1.077943470E+03  1.077943470E+03  0.000000000E+00  0.00000E+00  9.000E+00
      21     1     1     2   512   513 -3.124495946E+01 -6.323766142E+00  7.062620198E+01  7.748740489E+01  4.573661350E-06  0.00000E+00  9.000E+00
      21     1     1     2   513   511  1.294854236E+01  8.772472559E-01 -3.164470054E+02  3.167130271E+02  3.814697266E-06  0.00000E+00  9.000E+00
       1     1     1     2   511     0  1.829641709E+01  5.446518886E+00 -7.578126134E+02  7.580530914E+02  3.300000131E-01  0.00000E+00  9.000E+00
</event>
<event>
      5  10001  2.02673E+08  7.13438E+00 -1.00000E+00  2.14322E-01
       1    -1     0     0   512     0  0.000000000E+00  0.000000000E+00  4.166372835E+02  4.166372835E+02  0.000000000E+00  0.00000E+00  9.000E+00
      21    -1     0     0   514   512  0.000000000E+00  0.000000000E+00 -3.493886268E+00  3.493886268E+00  0.000000000E+00  0.00000E+00  9.000E+00
      21     1     1     2   513   511  3.221492144E+01 -2.054193937E+00  1.848117936E+02  1.876097544E+02  2.697398305E-06  0.00000E+00  9.000E+00
       1     1     1     2   511     0 -3.651518905E+01 -3.638355301E+00  1.968679185E+02  2.002590395E+02  3.300000131E-01  0.00000E+00  9.000E+00
      21     1     1     2   514   513  4.300267614E+00  5.692549239E+00  3.146368513E+01  3.226237593E+01  5.840038640E-07  0.00000E+00  9.000E+00
</event>
<event>
      5  10001  2.02673E+08  5.65521E+00 -1.00000E+00  2.29458E-01
      -2    -1     0     0     0   513  0.000000000E+00  0.000000000E+00  2.274775054E+02  2.274775054E+02  0.000000000E+00  0.00000E+00  9.000E+00
      21    -1     0     0   515   512  0.000000000E+00  0.000000000E+00 -5.607598464E+00  5.607598464E+00  0.000000000E+00  0.00000E+00  9.000E+00
      -2     1     1     2     0   512 -1.365077497E+01  2.941777115E+01  1.504522612E+02  1.539082217E+02  3.300000131E-01  0.00000E+00  9.000E+00
      21     1     1     2   515   511  1.414517757E+01 -2.158777811E+01  4.828455556E+01  5.474958007E+01  9.536743164E-07  0.00000E+00  9.000E+00
      21     1     1     2   511   513 -4.944025999E-01 -7.829993031E+00  2.313309018E+01  2.442730206E+01  3.371747881E-07  0.00000E+00  9.000E+00
</event>
<event>
      5  10001  2.02673E+08  5.85397E+01 -1.00000E+00  1.35251E-01
      21    -1     0     0   514   513  0.000000000E+00  0.000000000E+00  1.967352714E+01  1.967352714E+01  0.000000000E+00  0.00000E+00  9.000E+00
       2    -1     0     0   513     0  0.000000000E+00  0.000000000E+00 -5.043190940E+02  5.043190940E+02  0.000000000E+00  0.00000E+00  9.000E+00
       3     1     1     2   514     0  1.144036167E+01 -1.030676286E+01 -1.594220481E+01  2.217014050E+01  5.000000000E-01  0.00000E+00  9.000E+00
       2     1     1     2   511     0 -5.049932144E+01 -2.289443208E-01 -4.568935101E+02  4.596759972E+02  3.300000131E-01  0.00000E+00  9.000E+00
      -3     1     1     2     0   511  3.905895977E+01  1.053570718E+01 -1.180985190E+01  4.214648344E+01  5.000000000E-01  0.00000E+00  9.000E+00
</event>
<event>
      5  10001  2.02673E+08  1.22152E+01 -1.00000E+00  1.86168E-01
      21    -1     0     0   512   511  0.000000000E+00  0.000000000E+00  5.086590990E+01  5.086590990E+01  0.000000000E+00  0.00000E+00  9.000E+00
      21    -1     0     0   513   514  0.000000000E+00  0.000000000E+00 -6.768743021E+01  6.768743021E+01  0.000000000E+00  0.00000E+00  9.000E+00
      21     1     1     2   512   515  2.876917930E+01 -2.614127189E+01 -3.674187795E+01  5.348829188E+01  0.000000000E+00  0.00000E+00  9.000E+00
      21     1     1     2   513   511 -2.472541678E+01  1.461485208E+01  3.524615790E+01  4.546682069E+01  0.000000000E+00  0.00000E+00  9.000E+00
      21     1     1     2   515   514 -4.043762514E+00  1.152641981E+01 -1.532580027E+01  1.959822754E+01  3.769728732E-07  0.00000E+00  9.000E+00
</event>
<event>
      5  10001  2.02673E+08  1.28729E+01 -1.00000E+00  1.83827E-01
      21    -1     0     0   516   513  0.000000000E+00  0.000000000E+00  8.155336916E+00  8.155336916E+00  0.000000000E+00  0.00000E+00  9.000E+00
      21    -1     0     0   511   512  0.000000000E+00  0.000000000E+00 -3.231767986E+02  3.231767986E+02  0.000000000E+00  0.00000E+00  9.000E+00
      -1     1     1     2     0   512 -2.204742902E+01  1.657981980E+01 -2.217865319E+02  2.234957587E+02  3.300000131E-01  0.00000E+00  9.000E+00
       1     1     1     2   516     0  3.395120731E+01 -2.147900317E+01 -7.909993542E+01  8.871832245E+01  3.300000131E-01  0.00000E+00  9.000E+00
      21     1     1     2   511   513 -1.190377829E+01  4.899183375E+00 -1.413499441E+01  1.911805435E+01  3.371747881E-07  0.00000E+00  9.000E+00
</event>
<event>
      5  10001  2.02673E+08  3.76737E+01 -1.00000E+00  1.46441E-01
       1    -1     0     0   514     0  0.000000000E+00  0.000000000E+00  1.005273166E+02  1.005273166E+02  0.000000000E+00  0.00000E+00  9.000E+00
      -2    -1     0     0     0   514  0.000000000E+00  0.000000000E+00 -1.117053660E+02  1.117053660E+02  0.000000000E+00  0.00000E+00  9.000E+00
      21     1     1     2   512   511  9.300339428E+00  1.797826518E+01 -3.071172956E+01  3.678212426E+01  4.768371582E-07  0.00000E+00  9.000E+00
       1     1     1     2   511     0  2.607577181E+00 -3.597469305E+01  9.253982201E+01  9.932122410E+01  3.300000131E-01  0.00000E+00  9.000E+00
      -2     1     1     2     0   512 -1.190791661E+01  1.799642787E+01 -7.300614185E+01  7.612933431E+01  3.300000131E-01  0.00000E+00  9.000E+00
</event>
<event>
      5  10001  2.02673E+08  9.43589E+00 -1.00000E+00  1.98658E-01
      21    -1     0     0   513   511  0.000000000E+00  0.000000000E+00  2.101168980E+02  2.101168980E+02  0.000000000E+00  0.00000E+00  9.000E+00
      21    -1     0     0   514   512  0.000000000E+00  0.000000000E+00 -2.115292908E+01  2.115292908E+01  0.000000000E+00  0.00000E+00  9.000E+00
      21     1     1     2   513   512  2.050857406E+01 -4.865935427E+01  3.601133133E+01  6.391518092E+01  1.507891493E-06  0.00000E+00  9.000E+00
      21     1     1     2   515   511 -1.939366595E+01  3.928955866E+01  1.516213816E+02  1.578253055E+02  4.264961200E-06  0.00000E+00  9.000E+00
      21     1     1     2   514   515 -1.114908115E+00  9.369795610E+00  1.331255929E+00  9.529340597E+00  1.718485742E-07  0.00000E+00  9.000E+00
</event>
<event>
      5  10001  2.02673E+08  1.19484E+01 -1.00000E+00  1.87172E-01
      21    -1     0     0   511   512  0.000000000E+00  0.000000000E+00  3.204608674E+02  3.204608674E+02  0.000000000E+00  0.00000E+00  9.000E+00
      21    -1     0     0   514   517  0.000000000E+00  0.000000000E+00 -9.384358006E+00  9.384358006E+00  0.000000000E+00  0.00000E+00  9.000E+00
      21     1     1     2   516   517 -2.421710488E+01 -2.394390680E+01  2.068077122E+02  2.095929595E+02  2.697398305E-06  0.00000E+00  9.000E+00
      21     1     1     2   514   512  3.485099824E+01  1.849546200E+01  4.524633700E+01  6.003253455E+01  6.743495762E-07  0.00000E+00  9.000E+00
      21     1     1     2   511   516 -1.063389336E+01  5.448444792E+00  5.902246020E+01  6.021973137E+01  0.000000000E+00  0.00000E+00  9.000E+00
</event>
<event>
      5  10001  2.02673E+08  1.01099E+01 -1.00000E+00  1.95152E-01
       2    -1     0     0   514     0  0.000000000E+00  0.000000000E+00  1.095430750E+03  1.095430750E+03  0.000000000E+00  0.00000E+00  9.000E+00
      21    -1     0     0   511   513  0.000000000E+00  0.000000000E+00 -6.693730207E+00  6.693730207E+00  0.000000000E+00  0.00000E+00  9.000E+00
      21     1     1     2   512   513  6.767516027E+00 -2.924865657E+01  3.259413288E+01  4.431321115E+01  2.286830675E-06  0.00000E+00  9.000E+00
       2     1     1     2   511     0 -2.859747263E+00  3.822482717E+01  1.005521577E+03  1.006251990E+03  3.300000131E-01  0.00000E+00  9.000E+00
      21     1     1     2   514   512 -3.907768765E+00 -8.976170595E+00  5.062130987E+01  5.155927955E+01  6.743495762E-07  0.00000E+00  9.000E+00
</event>
<event>
      5  10001  2.02673E+08  1.83583E+01 -1.00000E+00  1.69455E-01
       2    -1     0     0   515     0  0.000000000E+00  0.000000000E+00  4.662249771E+02  4.662249771E+02  0.000000000E+00  0.00000E+00  9.000E+00
      21    -1     0     0   516   512  0.000000000E+00  0.000000000E+00 -2.059713372E+01  2.059713372E+01  0.000000000E+00  0.00000E+00  9.000E+00
      21     1     1     2   515   512  5.677223646E+00  2.286001097E+01  2.459362308E+01  3.405374085E+01  3.371747881E-07  0.00000E+00  9.000E+00
      21     1     1     2   516   511 -1.340349709E+01 -3.951319455E+01  1.212994592E+01  4.345206400E+01  2.384185791E-07  0.00000E+00  9.000E+00
       2     1     1     2   511     0  7.726273446E+00  1.665318358E+01  4.089042743E+02  4.093163059E+02  3.300000131E-01  0.00000E+00  9.000E+00
</event>
<event>
      5  10001  2.02673E+08  1.99281E+01 -1.00000E+00  1.66456E-01
      21    -1     0     0   513   512  0.000000000E+00  0.000000000E+00  1.882505542E+01  1.882505542E+01  0.000000000E+00  0.00000E+00  9.000E+00
      21    -1     0     0   517   514  0.000000000E+00  0.000000000E+00 -5.798930568E+01  5.798930568E+01  0.000000000E+00  0.00000E+00  9.000E+00
      21     1     1     2   513   514 -1.919261243E+01 -1.953441992E+01 -3.739593342E+00  2.763936490E+01  2.731427965E-07  0.00000E+00  9.000E+00
      21     1     1     2   517   515  1.330091797E+01  2.825437919E+00 -2.541940774E+01  2.882783044E+01  0.000000000E+00  0.00000E+00  9.000E+00
      21     1     1     2   515   512  5.891694462E+00  1.670898200E+01 -1.000524918E+01  2.034716576E+01  5.840038640E-07  0.00000E+00  9.000E+00
</event>
<event>
      5  10001  2.02673E+08  1.49727E+01 -1.00000E+00  1.77410E-01
      21    -1     0     0   513   514  0.000000000E+00  0.000000000E+00  6.819516750E+02  6.819516750E+02  0.000000000E+00  0.00000E+00  9.000E+00
      21    -1     0     0   516   512  0.000000000E+00  0.000000000E+00 -8.874772884E+00  8.874772884E+00  0.000000000E+00  0.00000E+00  9.000E+00
      21     1     1     2   511   512  2.100289528E+01  1.978801741E+01  4.255179037E+02  4.264952211E+02  5.394796609E-06  0.00000E+00  9.000E+00
      21     1     1     2   516   514 -1.261401811E+01 -3.219000184E+01  2.862381584E+01  4.488465779E+01  4.768371582E-07  0.00000E+00  9.000E+00
      21     1     1     2   513   511 -8.388877167E+00  1.240198443E+01  2.189351826E+02  2.194465690E+02  2.697398305E-06  0.00000E+00  9.000E+00
</event>
<event>
      5  10001  2.02673E+08  2.85483E+00 -1.00000E+00  3.03415E-01
       1    -1     0     0   511     0  0.000000000E+00  0.000000000E+00  2.390366804E+01  2.390366804E+01  0.000000000E+00  0.00000E+00  9.000E+00
      21    -1     0     0   515   511  0.000000000E+00  0.000000000E+00 -2.283235199E+02  2.283235199E+02  0.000000000E+00  0.00000E+00  9.000E+00
      21     1     1     2   515   512 -9.322452076E+00  3.424342596E+01 -1.807285036E+02  1.841801084E+02  1.907348633E-06  0.00000E+00  9.000E+00
       1     1     1     2   513     0  1.099790627E+01 -4.151264075E+01  2.746601644E-01  4.294691634E+01  3.300000131E-01  0.00000E+00  9.000E+00
      21     1     1     2   512   513 -1.675454197E+00  7.269214796E+00 -2.396600847E+01  2.510016320E+01  3.371747881E-07  0.00000E+00  9.000E+00
</event>
<event>
      5  10001  2.02673E+08  2.65443E+01 -1.00000E+00  1.56789E-01
       2    -1     0     0   511     0  0.000000000E+00  0.000000000E+00  6.058504865E+02  6.058504865E+02  0.000000000E+00  0.00000E+00  9.000E+00
      21    -1     0     0   512   511  0.000000000E+00  0.000000000E+00 -1.237586322E+01  1.237586322E+01  0.000000000E+00  0.00000E+00  9.000E+00
      21     1     1     2   512   514 -1.060161475E+01  4.184127337E+01  3.205961431E+01  5.376713924E+01  1.966049969E-06  0.00000E+00  9.000E+00
       2     1     1     2   515     0  1.820815879E+01 -1.752395852E+01  4.205304821E+02  4.212892373E+02  3.300000131E-01  0.00000E+00  9.000E+00
      21     1     1     2   514   515 -7.606544040E+00 -2.431731484E+01  1.408845268E+02  1.431699732E+02  2.697398305E-06  0.00000E+00  9.000E+00
</event>
<event>
      5  10001  2.02673E+08  1.03908E+01 -1.00000E+00  1.93795E-01
      21    -1     0     0   513   514  0.000000000E+00  0.000000000E+00  8.236776275E+00  8.236776275E+00  0.000000000E+00  0.00000E+00  9.000E+00
      21    -1     0     0   512   516  0.000000000E+00  0.000000000E+00 -1.562163172E+02  1.562163172E+02  0.000000000E+00  0.00000E+00  9.000E+00
      21     1     1     2   513   516 -2.637174219E+01  1.967083965E+01 -9.936774392E+01  1.046726289E+02  1.348699152E-06  0.00000E+00  9.000E+00
      21     1     1     2   511   514  1.190334829E+01 -1.537957058E+01 -3.090629730E+01  3.651602531E+01  3.371747881E-07  0.00000E+00  9.000E+00
      21     1     1     2   512   511  1.446839390E+01 -4.291269071E+00 -1.770549970E+01  2.326443921E+01  2.384185791E-07  0.00000E+00  9.000E+00
</event>
<event>
      5  10001  2.02673E+08  2.07663E+01 -1.00000E+00  1.64992E-01
      21    -1     0     0   515   513  0.000000000E+00  0.000000000E+00  7.497184059E+01  7.497184059E+01  0.000000000E+00  0.00000E+00  9.000E+00
      21    -1     0     0   512   515  0.000000000E+00  0.000000000E+00 -2.318290171E+02  2.318290171E+02  0.000000000E+00  0.00000E+00  9.000E+00
      21     1     1     2   512   517  6.049274789E+00 -3.684204956E+01 -1.277467311E+02  1.330907872E+02  1.348699152E-06  0.00000E+00  9.000E+00
      21     1     1     2   517   511  1.469661761E+01  3.592104237E+01 -9.606510193E+01  1.036089555E+02  1.348699152E-06  0.00000E+00  9.000E+00
      21     1     1     2   511   513 -2.074589240E+01  9.210071873E-01  6.695465644E+01  7.010111501E+01  1.651812370E-06  0.00000E+00  9.000E+00
</event>
<event>
      5  10001  2.02673E+08  2.43088E+01 -1.00000E+00  1.59630E-01
       1    -1     0     0   515     0  0.000000000E+00  0.000000000E+00  7.464914054E+02  7.464914054E+02  0.000000000E+00  0.00000E+00  9.000E+00
      21    -1     0     0   511   514  0.000000000E+00  0.000000000E+00 -9.930605381E+00  9.930605381E+00  0.000000000E+00  0.00000E+00  9.000E+00
      21     1     1     2   512   514  8.604487683E+00  6.871554305E+00  7.504785367E-02  1.101186174E+01  8.353511837E-07  0.00000E+00  9.000E+00
       1     1     1     2   511     0 -3.677962522E+01 -6.293349216E+00  6.902848275E+02  6.912927014E+02  3.300000131E-01  0.00000E+00  9.000E+00
      21     1     1     2   515   512  2.817513754E+01 -5.782050888E-01  4.620092473E+01  5.411744767E+01  1.168007728E-06  0.00000E+00  9.000E+00
</event>
<event>
      5  10001  2.02673E+08  1.15209E+01 -1.00000E+00  1.88854E-01
       3    -1     0     0   511     0  0.000000000E+00  0.000000000E+00  1.115569503E+01  1.115569503E+01  0.000000000E+00  0.00000E+00  9.000E+00
      21    -1     0     0   513   515  0.000000000E+00  0.000000000E+00 -1.578898506E+02  1.578898506E+02  0.000000000E+00  0.00000E+00  9.000E+00
      21     1     1     2   511   514 -2.405471539E+00 -2.098023130E+01 -5.419160370E+01  5.816086580E+01  9.536743164E-07  0.00000E+00  9.000E+00
       3     1     1     2   513     0  3.393781376E-01  3.401486290E+01 -2.539708696E+01  4.245454159E+01  5.000000000E-01  0.00000E+00  9.000E+00
      21     1     1     2   514   515  2.066093401E+00 -1.303463160E+01 -6.714546488E+01  6.843013822E+01  9.536743164E-07  0.00000E+00  9.000E+00
</event>
<event>
      5  10001  2.02673E+08  4.48734E+01 -1.00000E+00  1.41780E-01
      21    -1     0     0   512   513  0.000000000E+00  0.000000000E+00  2.350655200E+01  2.350655200E+01  0.000000000E+00  0.00000E+00  9.000E+00
      21    -1     0     0   516   512  0.000000000E+00  0.000000000E+00 -9.647315381E+01  9.647315381E+01  0.000000000E+00  0.00000E+00  9.000E+00
      21     1     1     2   516   515 -5.939368158E+00 -2.500189628E+01 -6.914496943E+01  7.376583023E+01  1.651812370E-06  0.00000E+00  9.000E+00
      -3     1     1     2     0   513  1.437608594E+01  1.824858292E+01 -1.727206033E+01  2.895266298E+01  5.000000000E-01  0.00000E+00  9.000E+00
       3     1     1     2   515     0 -8.436717781E+00  6.753313360E+00  1.345042795E+01  1.726121260E+01  5.000000000E-01  0.00000E+00  9.000E+00
</event>
<event>
      5  10001  2.02673E+08  1.15251E+01 -1.00000E+00  1.88837E-01
      21    -1     0     0   511   516  0.000000000E+00  0.000000000E+00  1.654816553E+02  1.654816553E+02  0.000000000E+00  0.00000E+00  9.000E+00
      21    -1     0     0   515   514  0.000000000E+00  0.000000000E+00 -5.178363270E+01  5.178363270E+01  0.000000000E+00  0.00000E+00  9.000E+00
      21     1     1     2   511   514  7.581243577E+00 -3.189841088E+01 -4.407294157E+01  5.493093890E+01  2.023048729E-06  0.00000E+00  9.000E+00
      21     1     1     2   512   516  2.100909143E+00  2.123804685E+01  1.205510305E+02  1.224255668E+02  1.348699152E-06  0.00000E+00  9.000E+00
      21     1     1     2   515   512 -9.682152720E+00  1.066036403E+01  3.721993369E+01  3.990878233E+01  4.768371582E-07  0.00000E+00  9.000E+00
</event>
<event>
      5  10001  2.02673E+08  1.37220E+01 -1.00000E+00  1.81057E-01
      21    -1     0     0   513   512  0.000000000E+00  0.000000000E+00  7.038131153E+01  7.038131153E+01  0.000000000E+00  0.00000E+00  9.000E+00
      21    -1     0     0   515   517  0.000000000E+00  0.000000000E+00 -2.892086840E+01  2.892086840E+01  0.000000000E+00  0.00000E+00  9.000E+00
      21     1     1     2   513   517 -3.821267289E+01 -1.918642610E+01  1.147014994E+01  4.427066360E+01  7.152557373E-07  0.00000E+00  9.000E+00
      21     1     1     2   511   512  2.551682092E+01  6.930615197E+00  2.569575085E+01  3.687022089E+01  4.768371582E-07  0.00000E+00  9.000E+00
      21     1     1     2   515   511  1.269585197E+01  1.225581090E+01  4.294542349E+00  1.816129544E+01  3.722308873E-07  0.00000E+00  9.000E+00
</event>
<event>
      5  10001  2.02673E+08  1.03136E+01 -1.00000E+00  1.94162E-01
       2    -1     0     0   512     0  0.000000000E+00  0.000000000E+00  3.011673943E+02  3.011673943E+02  0.000000000E+00  0.00000E+00  9.000E+00
       2    -1     0     0   514     0  0.000000000E+00  0.000000000E+00 -1.324763783E+02  1.324763783E+02  0.000000000E+00  0.00000E+00  9.000E+00
       2     1     1     2   514     0 -3.701058384E+01 -7.174424722E+00  2.885101279E+02  2.909629847E+02  3.300000131E-01  0.00000E+00  9.000E+00
       2     1     1     2   513     0  2.870747536E+01  1.056510894E+00 -1.269383172E+02  1.301486866E+02  3.300000131E-01  0.00000E+00  9.000E+00
      21     1     1     2   512   513  8.303108474E+00  6.117913828E+00  7.119205295E+00  1.253210134E+01  2.920019320E-07  0.00000E+00  9.000E+00
</event>
<event>
      5  10001  2.02673E+08  4.82662E+00 -1.00000E+00  2.45526E-01
       4    -1     0     0   513     0  0.000000000E+00  0.000000000E+00  1.479334507E+01  1.479334507E+01  0.000000000E+00  0.00000E+00  9.000E+00
      21    -1     0     0   514   512  0.000000000E+00  0.000000000E+00 -2.250652119E+02  2.250652119E+02  0.000000000E+00  0.00000E+00  9.000E+00
      21     1     1     2   513   512 -3.289373318E+01 -3.852209170E+01 -1.328370677E+02  1.421676327E+02  0.000000000E+00  0.00000E+00  9.000E+00
       4     1     1     2   511     0  2.954446903E+01  4.199635349E+01 -5.716581145E+01  7.685537948E+01  1.500000000E+00  0.00000E+00  9.000E+00
      21     1     1     2   514   511  3.349264143E+00 -3.474261783E+00 -2.026898763E+01  2.083554474E+01  3.371747881E-07  0.00000E+00  9.000E+00
</event>
<event>
      5  10001  2.02673E+08  5.78750E+00 -1.00000E+00  2.27852E-01
      21    -1     0     0   515   511  0.000000000E+00  0.000000000E+00  8.423335834E+01  8.423335834E+01  0.000000000E+00  0.00000E+00  9.000E+00
      21    -1     0     0   514   516  0.000000000E+00  0.000000000E+00 -1.759970360E+01  1.759970360E+01  0.000000000E+00  0.00000E+00  9.000E+00
      21     1     1     2   515   516 -2.289448409E+01  2.517726338E+01  5.454385229E+01  6.428906451E+01  6.743495762E-07  0.00000E+00  9.000E+00
      21     1     1     2   512   511  1.442041540E+01 -2.218186278E+01  7.787759607E+00  2.757956882E+01  5.462855929E-07  0.00000E+00  9.000E+00
      21     1     1     2   514   512  8.474068691E+00 -2.995400597E+00  4.302042846E+00  9.964428612E+00  5.960464478E-08  0.00000E+00  9.000E+00
</event>
<event>
      5  10001  2.02673E+08  4.53775E+01 -1.00000E+00  1.41493E-01
      21    -1     0     0   513   512  0.000000000E+00  0.000000000E+00  4.513798006E+01  4.513798006E+01  0.000000000E+00  0.00000E+00  9.000E+00
      21    -1     0     0   514   517  0.000000000E+00  0.000000000E+00 -2.249011400E+02  2.249011400E+02  0.000000000E+00  0.00000E+00  9.000E+00
      21     1     1     2   513   517  3.313127263E+01 -4.660312697E+00 -2.154611488E+02  2.180433589E+02  0.000000000E+00  0.00000E+00  9.000E+00
      21     1     1     2   511   512 -8.666447912E+00 -2.515716417E+00  1.206933007E+00  9.104550279E+00  2.602375924E-07  0.00000E+00  9.000E+00
      21     1     1     2   514   511 -2.446482472E+01  7.176029114E+00  3.449105579E+01  4.289121089E+01  1.261592536E-06  0.00000E+00  9.000E+00
</event>
<event>
      5  10001  2.02673E+08  3.50862E+01 -1.00000E+00  1.48428E-01
      21    -1     0     0   515   511  0.000000000E+00  0.000000000E+00  2.081484757E+02  2.081484757E+02  0.000000000E+00  0.00000E+00  9.000E+00
      21    -1     0     0   514   516  0.000000000E+00  0.000000000E+00 -1.864007324E+01  1.864007324E+01  0.000000000E+00  0.00000E+00  9.000E+00
      21     1     1     2   515   516 -3.412831743E+01  4.002508762E+00  1.601206120E+02  1.637662130E+02  0.000000000E+00  0.00000E+00  9.000E+00
      21     1     1     2   512   511  2.895900138E+01 -2.195838666E+01  2.408564809E+01  4.359946043E+01  1.011524364E-06  0.00000E+00  9.000E+00
      21     1     1     2   514   512  5.169316055E+00  1.795587790E+01  5.302142349E+00  1.942287551E+01  1.192092896E-07  0.00000E+00  9.000E+00
</event>
<event>
      5  10001  2.02673E+08  2.34329E+01 -1.00000E+00  1.60847E-01
      21    -1     0     0   513   511  0.000000000E+00  0.000000000E+00  3.363545258E+02  3.363545258E+02  0.000000000E+00  0.00000E+00  9.000E+00
      21    -1     0     0   511   512  0.000000000E+00  0.000000000E+00 -2.422140142E+01  2.422140142E+01  0.000000000E+00  0.00000E+00  9.000E+00
      -4     1     1     2     0   512  1.022043127E+01  4.067330804E+01 -3.213222930E+00  4.208740908E+01  1.500000000E+00  0.00000E+00  9.000E+00
      21     1     1     2   513   515 -6.020711966E+00 -1.707837186E+01  8.583232428E+01  8.772176269E+01  1.348699152E-06  0.00000E+00  9.000E+00
       4     1     1     2   515     0 -4.199719300E+00 -2.359493618E+01  2.295140231E+02  2.307667555E+02  1.500000000E+00  0.00000E+00  9.000E+00
</event>
<event>
      5  10001  2.02673E+08  1.29659E+01 -1.00000E+00  1.83510E-01
      21    -1     0     0   514   512  0.000000000E+00  0.000000000E+00  1.748786797E+02  1.748786797E+02  0.000000000E+00  0.00000E+00  9.000E+00
      21    -1     0     0   511   513  0.000000000E+00  0.000000000E+00 -2.677504802E+02  2.677504802E+02  0.000000000E+00  0.00000E+00  9.000E+00
      21     1     1     2   514   516  3.606617785E+01  7.581231835E+00  1.672929951E+02  1.713043796E+02  3.303624740E-06  0.00000E+00  9.000E+00
      21     1     1     2   511   512 -2.361288478E+01 -1.119104839E+01 -2.620814288E+01  3.700911570E+01  1.305872339E-06  0.00000E+00  9.000E+00
      21     1     1     2   516   513 -1.245329308E+01  3.609816553E+00 -2.339566528E+02  2.343156646E+02  0.000000000E+00  0.00000E+00  9.000E+00
</event>
<event>
      5  10001  2.02673E+08  6.75609E+01 -1.00000E+00  1.31980E-01
      -5    -1     0     0     0   515  0.000000000E+00  0.000000000E+00  2.161194786E+01  2.161194786E+01  0.000000000E+00  0.00000E+00  9.000E+00
      21    -1     0     0   512   513  0.000000000E+00  0.000000000E+00 -1.543288978E+02  1.543288978E+02  0.000000000E+00  0.00000E+00  9.000E+00
      -5     1     1     2     0   513  3.734591889E+01  1.232806115E+01 -1.546467751E+01  4.253110629E+01  4.800000191E+00  0.00000E+00  9.000E+00
      21     1     1     2   512   511 -1.385490432E+01 -1.606776852E+01 -9.825541813E+00  2.338103571E+01  3.153981341E-07  0.00000E+00  9.000E+00
      21     1     1     2   511   515 -2.349101457E+01  3.739707374E+00 -1.074267307E+02  1.100287037E+02  1.348699152E-06  0.00000E+00  9.000E+00
</event>
<event>
      5  10001  2.02673E+08  7.80501E+00 -1.00000E+00  2.09015E-01
      21    -1     0     0   513   512  0.000000000E+00  0.000000000E+00  2.509755278E+02  2.509755278E+02  0.000000000E+00  0.00000E+00  9.000E+00
      21    -1     0     0   515   514  0.000000000E+00  0.000000000E+00 -7.571466871E+00  7.571466871E+00  0.000000000E+00  0.00000E+00  9.000E+00
      21     1     1     2   515   516 -1.630932692E+01 -2.579254778E+01  8.006434129E+01  8.568283616E+01  0.000000000E+00  0.00000E+00  9.000E+00
      21     1     1     2   516   512  2.348388194E+01  2.886565021E+01  7.068883861E+01  7.988510736E+01  0.000000000E+00  0.00000E+00  9.000E+00
      21     1     1     2   513   514 -7.174555024E+00 -3.073102431E+00  9.265088101E+01  9.297905114E+01  1.348699152E-06  0.00000E+00  9.000E+00
</event>
<event>
      5  10001  2.02673E+08  1.99144E+01 -1.00000E+00  1.66481E-01
      21    -1     0     0   511   514  0.000000000E+00  0.000000000E+00  9.179485757E+01  9.179485757E+01  0.000000000E+00  0.00000E+00  9.000E+00
      21    -1     0     0   515   517  0.000000000E+00  0.000000000E+00 -1.375448665E+01  1.375448665E+01  0.000000000E+00  0.00000E+00  9.000E+00
      21     1     1     2   511   517 -2.386124745E+00  2.851521675E+01  1.210173442E+01  3.106868445E+01  1.685873940E-07  0.00000E+00  9.000E+00
      21     1     1     2   515   512 -8.512833648E+00 -1.397057059E+01  3.404664798E+01  3.777326327E+01  4.768371582E-07  0.00000E+00  9.000E+00
      21     1     1     2   512   514  1.089895839E+01 -1.454464615E+01  3.189198852E+01  3.670739649E+01  5.840038640E-07  0.00000E+00  9.000E+00
</event>
<event>
      5  10001  2.02673E+08  1.70917E+01 -1.00000E+00  1.72159E-01
      21    -1     0     0   512   514  0.000000000E+00  0.000000000E+00  3.525851973E+02  3.525851973E+02  0.000000000E+00  0.00000E+00  9.000E+00
      21    -1     0     0   511   513  0.000000000E+00  0.000000000E+00 -4.725985257E+01  4.725985257E+01  0.000000000E+00  0.00000E+00  9.000E+00
      -4     1     1     2     0   514 -2.890409233E+01  4.105946859E+01  7.948291116E+01  9.402717523E+01  1.500000000E+00  0.00000E+00  9.000E+00
      21     1     1     2   512   513  2.987837203E+01 -2.399770715E+01  2.625327513E+02  2.653150063E+02  3.814697266E-06  0.00000E+00  9.000E+00
       4     1     1     2   511     0 -9.742796978E-01 -1.706176145E+01 -3.669031776E+01  4.050286832E+01  1.500000000E+00  0.00000E+00  9.000E+00
</event>
<event>
      5  10001  2.02673E+08  1.05912E+01 -1.00000E+00  1.92860E-01
       2    -1     0     0   511     0  0.000000000E+00  0.000000000E+00  2.339029329E+02  2.339029329E+02  0.000000000E+00  0.00000E+00  9.000E+00
      21    -1     0     0   515   513  0.000000000E+00  0.000000000E+00 -1.372946916E+01  1.372946916E+01  0.000000000E+00  0.00000E+00  9.000E+00
      21     1     1     2   511   512  2.816867056E+01  3.855298671E+01  6.762867235E+01  8.278553079E+01  1.651812370E-06  0.00000E+00  9.000E+00
       2     1     1     2   515     0 -1.822238918E+01 -3.491384507E+01  1.482935038E+02  1.534343645E+02  3.300000131E-01  0.00000E+00  9.000E+00
      21     1     1     2   512   513 -9.946281377E+00 -3.639141639E+00  4.251287648E+00  1.141250681E+01  1.576990671E-07  0.00000E+00  9.000E+00
</event>
<event>
      5  10001  2.02673E+08  2.29472E+01 -1.00000E+00  1.61550E-01
      21    -1     0     0   514   513  0.000000000E+00  0.000000000E+00  1.784371911E+02  1.784371911E+02  0.000000000E+00  0.00000E+00  9.000E+00
      21    -1     0     0   512   516  0.000000000E+00  0.000000000E+00 -6.810328506E+00  6.810328506E+00  0.000000000E+00  0.00000E+00  9.000E+00
      21     1     1     2   514   516  8.103524309E+00 -2.606589880E+01  1.123986971E+02  1.156657481E+02  0.000000000E+00  0.00000E+00  9.000E+00
      21     1     1     2   512   511 -1.406311672E+01  8.670738961E+00  1.796396248E+01  2.440608355E+01  3.371747881E-07  0.00000E+00  9.000E+00
      21     1     1     2   511   513  5.959592415E+00  1.739515983E+01  4.126420304E+01  4.517568793E+01  4.768371582E-07  0.00000E+00  9.000E+00
</event>
<event>
      5  10001  2.02673E+08  1.79298E+01 -1.00000E+00  1.70338E-01
      21    -1     0     0   515   511  0.000000000E+00  0.000000000E+00  2.241018843E+01  2.241018843E+01  0.000000000E+00  0.00000E+00  9.000E+00
      21    -1     0     0   513   515  0.000000000E+00  0.000000000E+00 -8.222814632E+01  8.222814632E+01  0.000000000E+00  0.00000E+00  9.000E+00
      21     1     1     2   512   511 -2.825331955E+01 -2.549385562E+01 -5.955967973E+00  3.851831116E+01  8.128989754E-07  0.00000E+00  9.000E+00
      21     1     1     2   514   512  2.306032940E+00  1.616270337E+00 -2.211386764E+00  3.580551514E+00  5.161913656E-08  0.00000E+00  9.000E+00
      21     1     1     2   513   514  2.594728661E+01  2.387758528E+01 -5.165060315E+01  6.253947207E+01  6.743495762E-07  0.00000E+00  9.000E+00
</event>
<event>
      5  10001  2.02673E+08  7.84942E+01 -1.00000E+00  1.28726E-01
      21    -1     0     0   513   514  0.000000000E+00  0.000000000E+00  1.314687300E+02  1.314687300E+02  0.000000000E+00  0.00000E+00  9.000E+00
       1    -1     0     0   511     0  0.000000000E+00  0.000000000E+00 -1.509212124E+01  1.509212124E+01  0.000000000E+00  0.00000E+00  9.000E+00
      21     1     1     2   511   514  5.879163043E+00  2.183896260E+01  5.228881109E+01  5.697038363E+01  6.743495762E-07  0.00000E+00  9.000E+00
      21     1     1     2   513   512  1.738127983E+01  1.178041739E+01  1.554511301E+01  2.612542174E+01  3.371747881E-07  0.00000E+00  9.000E+00
       1     1     1     2   512     0 -2.326044287E+01 -3.361937999E+01  4.854268465E+01  6.346504586E+01  3.300000131E-01  0.00000E+00  9.000E+00
</event>
<event>
      5  10001  2.02673E+08  5.16085E+00 -1.00000E+00  2.36052E-01
      -3    -1     0     0     0   511  0.000000000E+00  0.000000000E+00  5.348850002E+01  5.348850002E+01  0.000000000E+00  0.00000E+00  9.000E+00
       2    -1     0     0   513     0  0.000000000E+00  0.000000000E+00 -1.041400981E+02  1.041400981E+02  0.000000000E+00  0.00000E+00  9.000E+00
      -3     1     1     2     0   512  1.987250815E+01 -3.039117543E+01  3.485732872E+01  5.033709855E+01  5.000000000E-01  0.00000E+00  9.000E+00
       2     1     1     2   512     0 -1.542331742E+01  3.300609933E+01 -1.996565163E+01  4.154536627E+01  3.300000131E-01  0.00000E+00  9.000E+00
      21     1     1     2   513   511 -4.449190727E+00 -2.614923895E+00 -6.554327517E+01  6.574613331E+01  0.000000000E+00  0.00000E+00  9.000E+00
</event>
<event>
      5  10001  2.02673E+08  1.46983E+01 -1.00000E+00  1.78171E-01
      21    -1     0     0   514   512  0.000000000E+00  0.000000000E+00  2.287063713E+02  2.287063713E+02  0.000000000E+00  0.00000E+00  9.000E+00
       2    -1     0     0   513     0  0.000000000E+00  0.000000000E+00 -2.552053391E+02  2.552053391E+02  0.000000000E+00  0.00000E+00  9.000E+00
      21     1     1     2   514   511 -2.319987072E+01 -6.255092663E+01  3.731063038E+00  6.681895880E+01  1.070397198E-06  0.00000E+00  9.000E+00
      21     1     1     2   513   512  9.663284140E+00  5.682362439E+01  1.888856408E+02  1.974844010E+02  3.814697266E-06  0.00000E+00  9.000E+00
       2     1     1     2   511     0  1.353658658E+01  5.727302241E+00 -2.191156717E+02  2.196083506E+02  3.300000131E-01  0.00000E+00  9.000E+00
</event>
<event>
      5  10001  2.02673E+08  1.20845E+01 -1.00000E+00  1.86655E-01
      21    -1     0     0   515   512  0.000000000E+00  0.000000000E+00  4.630292857E+01  4.630292857E+01  0.000000000E+00  0.00000E+00  9.000E+00
       5    -1     0     0   511     0  0.000000000E+00  0.000000000E+00 -8.900802115E+01  8.900802115E+01  0.000000000E+00  0.00000E+00  9.000E+00
      21     1     1     2   511   512  1.456734833E+01 -4.126137134E+01  2.641411396E+01  5.111177769E+01  8.259061849E-07  0.00000E+00  9.000E+00
       5     1     1     2   513     0 -4.965006944E+00  3.579380998E+01 -4.706389437E+01  5.953064994E+01  4.800000191E+00  0.00000E+00  9.000E+00
      21     1     1     2   515   513 -9.602341386E+00  5.467561359E+00 -2.205531217E+01  2.466852209E+01  3.371747881E-07  0.00000E+00  9.000E+00
</event>
<event>
      5  10001  2.02673E+08  1.11857E+01 -1.00000E+00  1.90240E-01
      21    -1     0     0   512   514  0.000000000E+00  0.000000000E+00  3.726369520E+01  3.726369520E+01  0.000000000E+00  0.00000E+00  9.000E+00
      21    -1     0     0   514   515  0.000000000E+00  0.000000000E+00 -2.117163033E+02  2.117163033E+02  0.000000000E+00  0.00000E+00  9.000E+00
      -4     1     1     2     0   511 -6.449014335E+00  4.974054497E+01 -1.859054774E+01  5.351233564E+01  1.500000000E+00  0.00000E+00  9.000E+00
      21     1     1     2   511   515 -4.724080371E+00 -4.927885836E+01 -1.701824388E+02  1.772365236E+02  3.303624740E-06  0.00000E+00  9.000E+00
       4     1     1     2   512     0  1.117309471E+01 -4.616866175E-01  1.432037846E+01  1.823113927E+01  1.500000000E+00  0.00000E+00  9.000E+00
</event>
<event>
      5  10001  2.02673E+08  7.76738E+00 -1.00000E+00  2.09293E-01
      21    -1     0     0   515   514  0.000000000E+00  0.000000000E+00  4.110200428E+02  4.110200428E+02  0.000000000E+00  0.00000E+00  9.000E+00
      21    -1     0     0   511   513  0.000000000E+00  0.000000000E+00 -5.802498123E+01  5.802498123E+01  0.000000000E+00  0.00000E+00  9.000E+00
      -4     1     1     2     0   514  2.944815011E+01  1.597745077E+01  1.640565729E+01  3.733454258E+01  1.500000000E+00  0.00000E+00  9.000E+00
      21     1     1     2   515   513 -3.679232621E+01 -1.850335314E+01  3.827085045E+02  3.849179766E+02  9.344061824E-06  0.00000E+00  9.000E+00
       4     1     1     2   511     0  7.344176094E+00  2.525902367E+00 -4.611910019E+01  4.679250482E+01  1.500000000E+00  0.00000E+00  9.000E+00
</event>
<event>
      5  10001  2.02673E+08  3.27030E+01 -1.00000E+00  1.50448E-01
      21    -1     0     0   512   514  0.000000000E+00  0.000000000E+00  2.158237866E+02  2.158237866E+02  0.000000000E+00  0.00000E+00  9.000E+00
      21    -1     0     0   513   516  0.000000000E+00  0.000000000E+00 -4.740719428E+01  4.740719428E+01  0.000000000E+00  0.00000E+00  9.000E+00
      21     1     1     2   512   516 -6.137072964E+01 -1.468713142E+01  1.045961110E+02  1.221573769E+02  0.000000000E+00  0.00000E+00  9.000E+00
      21     1     1     2   511   514  5.453929342E+01 -1.729441303E+01  8.474350563E+01  1.022501491E+02  1.651812370E-06  0.00000E+00  9.000E+00
      21     1     1     2   513   511  6.831436218E+00  3.198154445E+01 -2.092302429E+01  3.882345491E+01  5.331201500E-07  0.00000E+00  9.000E+00
</event>
<event>
      5  10001  2.02673E+08  5.47807E+00 -1.00000E+00  2.31707E-01
      21    -1     0     0   515   511  0.000000000E+00  0.000000000E+00  5.329396651E+00  5.329396651E+00  0.000000000E+00  0.00000E+00  9.000E+00
      21    -1     0     0   513   512  0.000000000E+00  0.000000000E+00 -2.277017328E+02  2.277017328E+02  0.000000000E+00  0.00000E+00  9.000E+00
      21     1     1     2   515   517 -1.796960483E+01  2.239757304E+01 -9.365718748E+01  9.796033249E+01  0.000000000E+00  0.00000E+00  9.000E+00
      21     1     1     2   513   511  2.340467004E+01 -2.171247434E+01 -8.135325554E+01  8.739314795E+01  9.536743164E-07  0.00000E+00  9.000E+00
      21     1     1     2   517   512 -5.435065205E+00 -6.850986987E-01 -4.736189313E+01  4.767764901E+01  6.743495762E-07  0.00000E+00  9.000E+00
</event>
<event>
      5  10001  2.02673E+08  1.61141E+01 -1.00000E+00  1.74456E-01
       2    -1     0     0   514     0  0.000000000E+00  0.000000000E+00  7.389200280E+02  7.389200280E+02  0.000000000E+00  0.00000E+00  9.000E+00
      21    -1     0     0   516   514  0.000000000E+00  0.000000000E+00 -1.769389697E+02  1.769389697E+02  0.000000000E+00  0.00000E+00  9.000E+00
      21     1     1     2   512   511 -4.085875184E+01 -1.583379874E+01  5.318441675E+01  6.891102212E+01  9.536743164E-07  0.00000E+00  9.000E+00
      21     1     1     2   516   512  2.640900008E+01  8.701488166E+00 -1.678358479E+02  1.701235523E+02  2.697398305E-06  0.00000E+00  9.000E+00
       2     1     1     2   511     0  1.444975176E+01  7.132310574E+00  6.766324896E+02  6.768244233E+02  3.300000131E-01  0.00000E+00  9.000E+00
</event>
<event>
      5  10001  2.02673E+08  7.94113E+00 -1.00000E+00  2.08025E-01
      21    -1     0     0   514   512  0.000000000E+00  0.000000000E+00  3.082395566E+02  3.082395566E+02  0.000000000E+00  0.00000E+00  9.000E+00
      21    -1     0     0   515   513  0.000000000E+00  0.000000000E+00 -6.243911210E+00  6.243911210E+00  0.000000000E+00  0.00000E+00  9.000E+00
      21     1     1     2   516   512  2.976836700E+01 -5.543632180E+00  4.872100562E+01  5.736396012E+01  1.651812370E-06  0.00000E+00  9.000E+00
      21     1     1     2   515   516 -2.918215562E+01  1.346309826E+01  1.433495915E+02  1.469079937E+02  0.000000000E+00  0.00000E+00  9.000E+00
      21     1     1     2   514   513 -5.862113822E-01 -7.919466082E+00  1.099250483E+02  1.102115140E+02  1.348699152E-06  0.00000E+00  9.000E+00
</event>
<event>
      5  10001  2.02673E+08  1.84988E+01 -1.00000E+00  1.69171E-01
      -3    -1     0     0     0   511  0.000000000E+00  0.000000000E+00  1.051652357E+02  1.051652357E+02  0.000000000E+00  0.00000E+00  9.000E+00
      21    -1     0     0   511   512  0.000000000E+00  0.000000000E+00 -5.791469902E+01  5.791469902E+01  0.000000000E+00  0.00000E+00  9.000E+00
      -3     1     1     2     0   514 -1.749470570E+01 -1.611228409E+01  8.711779351E+01  9.030742147E+01  5.000000000E-01  0.00000E+00  9.000E+00
      21     1     1     2   514   513  3.073384021E+01  2.903215301E+01 -2.575025856E+01  4.950263284E+01  1.261592536E-06  0.00000E+00  9.000E+00
      21     1     1     2   513   512 -1.323913450E+01 -1.291986892E+01 -1.411699825E+01  2.326988043E+01  3.769728732E-07  0.00000E+00  9.000E+00
</event>
<event>
      5  10001  2.02673E+08  5.19618E+00 -1.00000E+00  2.35546E-01
       1    -1     0     0   511     0  0.000000000E+00  0.000000000E+00  2.505081394E+02  2.505081394E+02  0.000000000E+00  0.00000E+00  9.000E+00
      21    -1     0     0   513   512  0.000000000E+00  0.000000000E+00 -1.068945863E+01  1.068945863E+01  0.000000000E+00  0.00000E+00  9.000E+00
      21     1     1     2   514   512  1.555077035E+00  3.429441613E+01  2.711948615E+01  4.374919166E+01  5.840038640E-07  0.00000E+00  9.000E+00
       1     1     1     2   513     0 -5.163442726E+00 -3.803330671E+01  1.620694143E+02  1.665526869E+02  3.300000131E-01  0.00000E+00  9.000E+00
      21     1     1     2   511   514  3.608365691E+00  3.738890577E+00  5.062978033E+01  5.089571948E+01  6.743495762E-07  0.00000E+00  9.000E+00
</event>
<event>
      5  10001  2.02673E+08  1.54165E+01 -1.00000E+00  1.76223E-01
      21    -1     0     0   515   512  0.000000000E+00  0.000000000E+00  1.056339495E+02  1.056339495E+02  0.000000000E+00  0.00000E+00  9.000E+00
      21    -1     0     0   516   515  0.000000000E+00  0.000000000E+00 -2.543182805E+01  2.543182805E+01  0.000000000E+00  0.00000E+00  9.000E+00
      21     1     1     2   516   514  3.886172479E+01  1.069382857E+00 -1.893391899E+00  3.892251490E+01  4.928659024E-07  0.00000E+00  9.000E+00
      21     1     1     2   513   512 -2.243039986E+01 -6.667839316E+00  3.652063393E+01  4.337441206E+01  1.066240300E-06  0.00000E+00  9.000E+00
      21     1     1     2   514   513 -1.643132493E+01  5.598456459E+00  4.557487944E+01  4.876885061E+01  6.743495762E-07  0.00000E+00  9.000E+00
</event>
<event>
      5  10001  2.02673E+08  1.51030E+01 -1.00000E+00  1.77057E-01
      21    -1     0     0   511   512  0.000000000E+00  0.000000000E+00  3.623628010E+01  3.623628010E+01  0.000000000E+00  0.00000E+00  9.000E+00
       2    -1     0     0   513     0  0.000000000E+00  0.000000000E+00 -2.730953404E+01  2.730953404E+01  0.000000000E+00  0.00000E+00  9.000E+00
      21     1     1     2   513   512 -1.370911766E+01 -2.328151308E+01 -2.296247390E+00  2.711533718E+01  7.238958956E-07  0.00000E+00  9.000E+00
       2     1     1     2   515     0  1.461519840E+01  1.822333965E+01 -7.782273064E-01  2.337538598E+01  3.300000131E-01  0.00000E+00  9.000E+00
      21     1     1     2   511   515 -9.060807415E-01  5.058173429E+00  1.200122076E+01  1.305509098E+01  2.920019320E-07  0.00000E+00  9.000E+00
</event>
<event>
      5  10001  2.02673E+08  6.85541E+01 -1.00000E+00  1.31656E-01
      21    -1     0     0   514   513  0.000000000E+00  0.000000000E+00  1.247465779E+01  1.247465779E+01  0.000000000E+00  0.00000E+00  9.000E+00
      21    -1     0     0   512   516  0.000000000E+00  0.000000000E+00 -2.290014722E+02  2.290014722E+02  0.000000000E+00  0.00000E+00  9.000E+00
      21     1     1     2   514   516 -5.555915255E+00 -2.848074409E+01 -1.463717558E+02  1.492203467E+02  1.907348633E-06  0.00000E+00  9.000E+00
      21     1     1     2   517   513  2.092309859E+01  1.095848206E+01 -6.389902744E+01  6.812451902E+01  9.536743164E-07  0.00000E+00  9.000E+00
      21     1     1     2   512   517 -1.536718334E+01  1.752226203E+01 -6.256031209E+00  2.413126430E+01  6.529361695E-07  0.00000E+00  9.000E+00
</event>
<event>
      5  10001  2.02673E+08  5.58753E+01 -1.00000E+00  1.36350E-01
       2    -1     0     0   512     0  0.000000000E+00  0.000000000E+00  5.224991436E+02  5.224991436E+02  0.000000000E+00  0.00000E+00  9.000E+00
       4    -1     0     0   511     0  0.000000000E+00  0.000000000E+00 -1.163355903E+01  1.163355903E+01  0.000000000E+00  0.00000E+00  9.000E+00
       2     1     1     2   513     0 -1.373937899E+01  3.819918533E+01  3.246469808E+02  3.271753648E+02  3.300000131E-01  0.00000E+00  9.000E+00
       4     1     1     2   512     0 -2.078827701E+01 -3.121284044E+01  3.375900582E+01  5.048083144E+01  1.500000000E+00  0.00000E+00  9.000E+00
      21     1     1     2   511   513  3.452765600E+01 -6.986344890E+00  1.524595980E+02  1.564765064E+02  2.697398305E-06  0.00000E+00  9.000E+00
</event>
<event>
      5  10001  2.02673E+08  5.95060E+01 -1.00000E+00  1.34868E-01
      21    -1     0     0   514   515  0.000000000E+00  0.000000000E+00  4.651491008E+00  4.651491008E+00  0.000000000E+00  0.00000E+00  9.000E+00
      21    -1     0     0   511   513  0.000000000E+00  0.000000000E+00 -2.445740312E+02  2.445740312E+02  0.000000000E+00  0.00000E+00  9.000E+00
      21     1     1     2   514   513 -3.770500280E+00  7.235306359E+00 -4.391907633E+01  4.467047791E+01  4.768371582E-07  0.00000E+00  9.000E+00
      21     1     1     2   511   512  1.185657966E+01 -4.870614783E+00 -1.957057153E+02  1.961250325E+02  2.697398305E-06  0.00000E+00  9.000E+00
      21     1     1     2   512   515 -8.086079377E+00 -2.364691576E+00 -2.977486253E-01  8.430011873E+00  7.349970381E-07  0.00000E+00  9.000E+00
</event>
<event>
      5  10001  2.02673E+08  5.71222E+01 -1.00000E+00  1.35827E-01
      21    -1     0     0   516   511  0.000000000E+00  0.000000000E+00  9.065400504E+02  9.065400504E+02  0.000000000E+00  0.00000E+00  9.000E+00
      21    -1     0     0   517   515  0.000000000E+00  0.000000000E+00 -1.552924703E+00  1.552924703E+00  0.000000000E+00  0.00000E+00  9.000E+00
      21     1     1     2   516   515  1.554980362E+01 -1.068696615E+00  1.261840674E+02  1.271430586E+02  2.336015456E-06  0.00000E+00  9.000E+00
      21     1     1     2   517   513 -8.378370587E+00 -2.712198569E+01  3.393596931E+02  3.405448583E+02  3.814697266E-06  0.00000E+00  9.000E+00
      21     1     1     2   513   511 -7.171433030E+00  2.819068230E+01  4.394433652E+02  4.404050581E+02  5.394796609E-06  0.00000E+00  9.000E+00
</event>
<event>
      5  10001  2.02673E+08  1.67758E+01 -1.00000E+00  1.72880E-01
      21    -1     0     0   512   515  0.000000000E+00  0.000000000E+00  1.791365590E+01  1.791365590E+01  0.000000000E+00  0.00000E+00  9.000E+00
      21    -1     0     0   511   512  0.000000000E+00  0.000000000E+00 -6.328462232E+01  6.328462232E+01  0.000000000E+00  0.00000E+00  9.000E+00
      21     1     1     2   511   514  2.490872211E+01  1.552947596E+01 -3.713129366E+01  4.733225147E+01  6.743495762E-07  0.00000E+00  9.000E+00
      21     1     1     2   516   515 -1.122703923E+01 -1.279627113E+00  2.216069467E+00  1.151498238E+01  3.475518164E-07  0.00000E+00  9.000E+00
      21     1     1     2   514   516 -1.368168288E+01 -1.424984885E+01 -1.045574223E+01  2.235104436E+01  2.064765462E-07  0.00000E+00  9.000E+00
</event>
<event>
      5  10001  2.02673E+08  2.61679E+00 -1.00000E+00  3.15963E-01
       2    -1     0     0   513     0  0.000000000E+00  0.000000000E+00  3.131182204E+02  3.131182204E+02  0.000000000E+00  0.00000E+00  9.000E+00
      -2    -1     0     0     0   512  0.000000000E+00  0.000000000E+00 -8.365411859E+00  8.365411859E+00  0.000000000E+00  0.00000E+00  9.000E+00
      -3     1     1     2     0   512  2.992175414E+01 -3.282219541E+01  8.298689101E+01  9.412588359E+01  5.000000000E-01  0.00000E+00  9.000E+00
       3     1     1     2   511     0 -2.730511907E+01  3.283252615E+01  1.619962389E+02  1.675308202E+02  5.000000000E-01  0.00000E+00  9.000E+00
      21     1     1     2   513   511 -2.616635070E+00 -1.033073712E-02  5.976967871E+01  5.982692854E+01  9.536743164E-07  0.00000E+00  9.000E+00
</event>
<event>
      5  10001  2.02673E+08  1.15533E+01 -1.00000E+00  1.88723E-01
      21    -1     0     0   512   514  0.000000000E+00  0.000000000E+00  3.426803469E+02  3.426803469E+02  0.000000000E+00  0.00000E+00  9.000E+00
      21    -1     0     0   513   511  0.000000000E+00  0.000000000E+00 -1.572016079E+01  1.572016079E+01  0.000000000E+00  0.00000E+00  9.000E+00
      -3     1     1     2     0   511 -2.639829819E+01  2.179051176E+01  2.333260023E+01  4.142893655E+01  5.000000000E-01  0.00000E+00  9.000E+00
      21     1     1     2   513   514  1.568242810E+01 -2.610791412E+01  2.885065829E+01  4.195142685E+01  0.000000000E+00  0.00000E+00  9.000E+00
       3     1     1     2   512     0  1.071587009E+01  4.317402364E+00  2.747769275E+02  2.750201443E+02  5.000000000E-01  0.00000E+00  9.000E+00
</event>
<event>
      5  10001  2.02673E+08  1.36077E+01 -1.00000E+00  1.81414E-01
      21    -1     0     0   516   511  0.000000000E+00  0.000000000E+00  2.579806857E+01  2.579806857E+01  0.000000000E+00  0.00000E+00  9.000E+00
      -2    -1     0     0     0   515  0.000000000E+00  0.000000000E+00 -6.022866462E+01  6.022866462E+01  0.000000000E+00  0.00000E+00  9.000E+00
      -2     1     1     2     0   513 -2.367629247E+01 -2.955490197E+01 -2.595070150E+01  4.590867961E+01  3.300000131E-01  0.00000E+00  9.000E+00
      21     1     1     2   516   515  1.875525768E+01  1.686848015E+01 -2.826453707E+00  2.538295006E+01  3.919883501E-07  0.00000E+00  9.000E+00
      21     1     1     2   513   511  4.921034789E+00  1.268642182E+01 -5.653440851E+00  1.473510351E+01  1.460009660E-07  0.00000E+00  9.000E+00
</event>
<event>
      5  10001  2.02673E+08  1.52764E+01 -1.00000E+00  1.76593E-01
      21    -1     0     0   512   515  0.000000000E+00  0.000000000E+00  9.340695313E+01  9.340695313E+01  0.000000000E+00  0.00000E+00  9.000E+00
      21    -1     0     0   511   512  0.000000000E+00  0.000000000E+00 -1.586009622E+01  1.586009622E+01  0.000000000E+00  0.00000E+00  9.000E+00
      21     1     1     2   514   515 -1.501361900E+01  2.957665729E+01  6.396164693E+01  7.205053567E+01  6.743495762E-07  0.00000E+00  9.000E+00
      21     1     1     2   516   514  1.018603946E+00 -8.205332343E+00 -3.098878343E-02  8.268373067E+00  2.937475776E-07  0.00000E+00  9.000E+00
      21     1     1     2   511   516  1.399501505E+01 -2.137132495E+01  1.361619877E+01  2.894814061E+01  0.000000000E+00  0.00000E+00  9.000E+00
</event>
<event>
      5  10001  2.02673E+08  1.42050E+01 -1.00000E+00  1.79592E-01
      -5    -1     0     0     0   513  0.000000000E+00  0.000000000E+00  5.395693903E+01  5.395693903E+01  0.000000000E+00  0.00000E+00  9.000E+00
      21    -1     0     0   514   512  0.000000000E+00  0.000000000E+00 -4.501374179E+01  4.501374179E+01  0.000000000E+00  0.00000E+00  9.000E+00
      -5     1     1     2     0   512  2.847005754E+01  5.490215981E+00  4.024920120E+01  4.983698272E+01  4.800000191E+00  0.00000E+00  9.000E+00
      21     1     1     2   515   513 -2.890729291E+01 -1.079807297E+01 -2.038561301E+01  3.698382323E+01  2.384185791E-07  0.00000E+00  9.000E+00
      21     1     1     2   514   515  4.372353706E-01  5.307856988E+00 -1.092039096E+01  1.214987486E+01  3.153981341E-07  0.00000E+00  9.000E+00
</event>
<event>
      5  10001  2.02673E+08  4.01683E+00 -1.00000E+00  2.62933E-01
      21    -1     0     0   511   512  0.000000000E+00  0.000000000E+00  1.436054042E+02  1.436054042E+02  0.000000000E+00  0.00000E+00  9.000E+00
      21    -1     0     0   514   516  0.000000000E+00  0.000000000E+00 -1.415846517E+01  1.415846517E+01  0.000000000E+00  0.00000E+00  9.000E+00
      21     1     1     2   511   516  2.582615905E+01 -1.937820487E+01  9.787954742E+00  3.373884072E+01  6.848052319E-07  0.00000E+00  9.000E+00
      21     1     1     2   514   513 -1.650633126E+01  9.730684104E+00  6.722219499E+01  6.989970446E+01  1.651812370E-06  0.00000E+00  9.000E+00
      21     1     1     2   513   512 -9.319827789E+00  9.647520763E+00  5.243678934E+01  5.412532423E+01  0.000000000E+00  0.00000E+00  9.000E+00
</event>
<event>
      5  10001  2.02673E+08  6.94608E+01 -1.00000E+00  1.31365E-01
      21    -1     0     0   515   514  0.000000000E+00  0.000000000E+00  4.879654456E+01  4.879654456E+01  0.000000000E+00  0.00000E+00  9.000E+00
      21    -1     0     0   517   512  0.000000000E+00  0.000000000E+00 -8.560016548E+01  8.560016548E+01  0.000000000E+00  0.00000E+00  9.000E+00
      21     1     1     2   515   512 -3.695921232E+01  9.306086744E+00 -5.946814260E+01  7.063318349E+01  1.168007728E-06  0.00000E+00  9.000E+00
      21     1     1     2   517   511  8.101167289E+00 -2.045765523E+01 -4.654703339E+00  2.249023860E+01  5.840038640E-07  0.00000E+00  9.000E+00
      21     1     1     2   511   514  2.885804504E+01  1.115156849E+01  2.731922501E+01  4.127328795E+01  6.743495762E-07  0.00000E+00  9.000E+00
</event>
<event>
      5  10001  2.02673E+08  1.20928E+01 -1.00000E+00  1.86624E-01
       1    -1     0     0   512     0  0.000000000E+00  0.000000000E+00  1.964191967E+02  1.964191967E+02  0.000000000E+00  0.00000E+00  9.000E+00
      21    -1     0     0   515   512  0.000000000E+00  0.000000000E+00 -8.108936625E+01  8.108936625E+01  0.000000000E+00  0.00000E+00  9.000E+00
      21     1     1     2   513   511  2.290441049E+01 -3.369885913E+01  3.647627518E+01  5.468769310E+01  0.000000000E+00  0.00000E+00  9.000E+00
       1     1     1     2   511     0 -1.468376943E+01  2.483001366E+01  1.489352396E+02  1.517035173E+02  3.300000131E-01  0.00000E+00  9.000E+00
      21     1     1     2   515   513 -8.220641057E+00  8.868845469E+00 -7.008168432E+01  7.111735257E+01  9.536743164E-07  0.00000E+00  9.000E+00
</event>
<event>
      5  10001  2.02673E+08  9.24854E+00 -1.00000E+00  1.99702E-01
      21    -1     0     0   514   511  0.000000000E+00  0.000000000E+00  1.880478352E+02  1.880478352E+02  0.000000000E+00  0.00000E+00  9.000E+00
      21    -1     0     0   515   513  0.000000000E+00  0.000000000E+00 -1.832973361E+02  1.832973361E+02  0.000000000E+00  0.00000E+00  9.000E+00
      21     1     1     2   514   513 -1.885690633E+01 -4.574385800E+01  1.812153834E+02  1.878486057E+02  3.814697266E-06  0.00000E+00  9.000E+00
      21     1     1     2   512   511  6.754047500E+00  2.625718583E+01 -8.624366560E+01  9.040479424E+01  2.336015456E-06  0.00000E+00  9.000E+00
      21     1     1     2   515   512  1.210285883E+01  1.948667217E+01 -9.022121880E+01  9.309177142E+01  1.907348633E-06  0.00000E+00  9.000E+00
</event>
<event>
      5  10001  2.02673E+08  5.92775E+00 -1.00000E+00  2.26213E-01
      21    -1     0     0   516   512  0.000000000E+00  0.000000000E+00  1.680085170E+01  1.680085170E+01  0.000000000E+00  0.00000E+00  9.000E+00
      21    -1     0     0   515   517  0.000000000E+00  0.000000000E+00 -9.646171523E+01  9.646171523E+01  0.000000000E+00  0.00000E+00  9.000E+00
      21     1     1     2   516   517  1.128952986E+01  3.204216711E+01 -6.942928647E+01  7.729540593E+01  1.348699152E-06  0.00000E+00  9.000E+00
      21     1     1     2   511   512 -7.751011537E+00 -1.648653487E+01 -7.851427154E+00  1.983756336E+01  3.153981341E-07  0.00000E+00  9.000E+00
      21     1     1     2   515   511 -3.538518327E+00 -1.555563224E+01 -2.380149908E+00  1.612959764E+01  2.779775576E-07  0.00000E+00  9.000E+00
</event>
<event>
      5  10001  2.02673E+08  2.16592E+01 -1.00000E+00  1.63523E-01
      21    -1     0     0   512   511  0.000000000E+00  0.000000000E+00  5.461809266E+02  5.461809266E+02  0.000000000E+00  0.00000E+00  9.000E+00
      21    -1     0     0   515   514  0.000000000E+00  0.000000000E+00 -8.817556101E+00  8.817556101E+00  0.000000000E+00  0.00000E+00  9.000E+00
      21     1     1     2   513   514  1.060787784E+01  3.335852896E+01  5.675118378E+01  6.667844769E+01  1.507891493E-06  0.00000E+00  9.000E+00
      21     1     1     2   515   511 -3.133741818E+01 -3.963609921E+01  1.808351549E+02  1.877615706E+02  3.814697266E-06  0.00000E+00  9.000E+00
      21     1     1     2   512   513  2.072954035E+01  6.277570251E+00  2.997770318E+02  3.005584644E+02  0.000000000E+00  0.00000E+00  9.000E+00
</event>
<event>
      5  10001  2.02673E+08  5.47707E+01 -1.00000E+00  1.36826E-01
      21    -1     0     0   515   511  0.000000000E+00  0.000000000E+00  3.603255155E+02  3.603255155E+02  0.000000000E+00  0.00000E+00  9.000E+00
       5    -1     0     0   511     0  0.000000000E+00  0.000000000E+00 -5.890538221E+00  5.890538221E+00  0.000000000E+00  0.00000E+00  9.000E+00
      21     1     1     2   514   516  3.528443309E+00 -1.483979959E+01  3.713016822E+01  4.014123760E+01  8.259061849E-07  0.00000E+00  9.000E+00
       5     1     1     2   516     0  4.558124528E+00  2.753295313E+01  4.380285124E+01  5.215908152E+01  4.800000191E+00  0.00000E+00  9.000E+00
      21     1     1     2   515   514 -8.086567837E+00 -1.269315353E+01  2.735019578E+02  2.739157346E+02  0.000000000E+00  0.00000E+00  9.000E+00
</event>
<event>
      5  10001  2.02673E+08  4.89590E+01 -1.00000E+00  1.39570E-01
      -1    -1     0     0     0   514  0.000000000E+00  0.000000000E+00  4.842520424E+01  4.842520424E+01  0.000000000E+00  0.00000E+00  9.000E+00
      21    -1     0     0   511   513  0.000000000E+00  0.000000000E+00 -4.572627244E+02  4.572627244E+02  0.000000000E+00  0.00000E+00  9.000E+00
      21     1     1     2   512   513  6.471299289E+01  1.893113517E+01 -8.430968791E+01  1.079550036E+02  9.536743164E-07  0.00000E+00  9.000E+00
      21     1     1     2   511   514 -5.472823076E+01  2.899881423E+01 -3.406129334E+02  3.461983259E+02  9.344061824E-06  0.00000E+00  9.000E+00
      -1     1     1     2     0   512 -9.984762131E+00 -4.792994939E+01  1.608510117E+01  5.153459909E+01  3.300000131E-01  0.00000E+00  9.000E+00
</event>
<event>
      5  10001  2.02673E+08  3.25741E+00 -1.00000E+00  2.86296E-01
       2    -1     0     0   511     0  0.000000000E+00  0.000000000E+00  5.449134598E+02  5.449134598E+02  0.000000000E+00  0.00000E+00  9.000E+00
      21    -1     0     0   515   516  0.000000000E+00  0.000000000E+00 -4.124822229E+00  4.124822229E+00  0.000000000E+00  0.00000E+00  9.000E+00
      21     1     1     2   511   513 -3.496007141E+00  2.635727854E+01  5.105261328E+01  5.756125017E+01  2.336015456E-06  0.00000E+00  9.000E+00
       2     1     1     2   515     0  6.996522342E+00 -2.931413718E+01  4.768323734E+02  4.777839377E+02  3.300000131E-01  0.00000E+00  9.000E+00
      21     1     1     2   513   516 -3.500515201E+00  2.956858632E+00  1.290365091E+01  1.369309411E+01  2.384185791E-07  0.00000E+00  9.000E+00
</event>
<event>
      5  10001  2.02673E+08  3.37389E+01 -1.00000E+00  1.49546E-01
      21    -1     0     0   513   514  0.000000000E+00  0.000000000E+00  1.401371130E+01  1.401371130E+01  0.000000000E+00  0.00000E+00  9.000E+00
       2    -1     0     0   514     0  0.000000000E+00  0.000000000E+00 -1.098216222E+03  1.098216222E+03  0.000000000E+00  0.00000E+00  9.000E+00
      21     1     1     2   513   512  4.343158204E+00  3.111619210E+01 -5.250346529E+00  3.185351743E+01  1.171045465E-06  0.00000E+00  9.000E+00
       2     1     1     2   511     0  1.473659989E+01 -3.313269389E+01 -6.974940411E+02  6.984361023E+02  3.300000131E-01  0.00000E+00  9.000E+00
      21     1     1     2   512   511 -1.907975809E+01  2.016501790E+00 -3.814581229E+02  3.819403134E+02  0.000000000E+00  0.00000E+00  9.000E+00
</event>
<event>
      5  10001  2.02673E+08  2.40471E+01 -1.00000E+00  1.59987E-01
      21    -1     0     0   515   511  0.000000000E+00  0.000000000E+00  2.945943245E+01  2.945943245E+01  0.000000000E+00  0.00000E+00  9.000E+00
      21    -1     0     0   514   515  0.000000000E+00  0.000000000E+00 -3.625534029E+01  3.625534029E+01  0.000000000E+00  0.00000E+00  9.000E+00
      21     1     1     2   514   516  2.549701408E+01  3.319750124E+00 -1.145171924E+01  2.814711959E+01  4.129530925E-07  0.00000E+00  9.000E+00
      21     1     1     2   516   513 -1.474922639E+01  9.204497802E+00  1.020080046E+01  2.015735074E+01  2.064765462E-07  0.00000E+00  9.000E+00
      21     1     1     2   513   511 -1.074778769E+01 -1.252424793E+01 -5.544989064E+00  1.741030241E+01  4.578319638E-07  0.00000E+00  9.000E+00
</event>
<event>
      5  10001  2.02673E+08  9.08636E+01 -1.00000E+00  1.25705E-01
       1    -1     0     0   515     0  0.000000000E+00  0.000000000E+00  1.448787890E+01  1.448787890E+01  0.000000000E+00  0.00000E+00  9.000E+00
      21    -1     0     0   512   513  0.000000000E+00  0.000000000E+00 -1.831510496E+02  1.831510496E+02  0.000000000E+00  0.00000E+00  9.000E+00
      21     1     1     2   515   513  9.536594826E+00  5.512445327E+00 -3.601066199E+01  3.765768808E+01  0.000000000E+00  0.00000E+00  9.000E+00
      21     1     1     2   512   514 -1.872254516E+01 -1.553065956E+01 -1.416200759E+02  1.436940534E+02  3.303624740E-06  0.00000E+00  9.000E+00
       1     1     1     2   514     0  9.185950331E+00  1.001821423E+01  8.967567198E+00  1.628718703E+01  3.300000131E-01  0.00000E+00  9.000E+00
</event>
<event>
      5  10001  2.02673E+08  1.24505E+01 -1.00000E+00  1.85309E-01
      21    -1     0     0   511   513  0.000000000E+00  0.000000000E+00  5.936610123E+01  5.936610123E+01  0.000000000E+00  0.00000E+00  9.000E+00
      21    -1     0     0   516   511  0.000000000E+00  0.000000000E+00 -1.929558194E+02  1.929558194E+02  0.000000000E+00  0.00000E+00  9.000E+00
      21     1     1     2   516   517 -2.161570101E+01  2.816012814E+01 -1.645503327E+02  1.683361023E+02  0.000000000E+00  0.00000E+00  9.000E+00
      21     1     1     2   517   512  2.077196369E+01 -1.573825620E+01 -1.915730862E+01  3.234454602E+01  4.129530925E-07  0.00000E+00  9.000E+00
      21     1     1     2   512   513  8.437373217E-01 -1.242187194E+01  5.011792309E+01  5.164127235E+01  9.536743164E-07  0.00000E+00  9.000E+00
</event>
<event>
      5  10001  2.02673E+08  7.54539E+01 -1.00000E+00  1.29567E-01
      21    -1     0     0   512   513  0.000000000E+00  0.000000000E+00  2.293333574E+02  2.293333574E+02  0.000000000E+00  0.00000E+00  9.000E+00
       3    -1     0     0   514     0  0.000000000E+00  0.000000000E+00 -6.078468616E+01  6.078468616E+01  0.000000000E+00  0.00000E+00  9.000E+00
      21     1     1     2   514   511 -2.298647887E+01  8.840297136E+01  1.485360204E+02  1.743743470E+02  3.303624740E-06  0.00000E+00  9.000E+00
       3     1     1     2   512     0  1.278106473E+01 -4.997464273E+01 -2.359955316E+01  5.672750163E+01  5.000000000E-01  0.00000E+00  9.000E+00
      21     1     1     2   511   513  1.020541415E+01 -3.842832863E+01  4.361220404E+01  5.901619490E+01  1.168007728E-06  0.00000E+00  9.000E+00
</event>
<event>
      5  10001  2.02673E+08  1.76198E+01 -1.00000E+00  1.70997E-01
      21    -1     0     0   515   511  0.000000000E+00  0.000000000E+00  5.406122757E+02  5.406122757E+02  0.000000000E+00  0.00000E+00  9.000E+00
      21    -1     0     0   513   515  0.000000000E+00  0.000000000E+00 -4.870256566E+00  4.870256566E+00  0.000000000E+00  0.00000E+00  9.000E+00
      21     1     1     2   513   514  3.029378578E+01  1.112751011E+01  5.707320818E+01  6.556589075E+01  0.000000000E+00  0.00000E+00  9.000E+00
      21     1     1     2   512   511 -6.194987858E+00 -7.011487922E-01  1.761943507E+02  1.763046191E+02  2.697398305E-06  0.00000E+00  9.000E+00
      21     1     1     2   514   512 -2.409879792E+01 -1.042636132E+01  3.024744602E+02  3.036120224E+02  5.394796609E-06  0.00000E+00  9.000E+00
</event>
<event>
      5  10001  2.02673E+08  2.49374E+01 -1.00000E+00  1.58795E-01
      -4    -1     0     0     0   511  0.000000000E+00  0.000000000E+00  1.539966795E+01  1.539966795E+01  0.000000000E+00  0.00000E+00  9.000E+00
       2    -1     0     0   511     0  0.000000000E+00  0.000000000E+00 -5.172340002E+02  5.172340002E+02  0.000000000E+00  0.00000E+00  9.000E+00
      -4     1     1     2     0   513 -4.641096975E+01 -2.963697894E+00 -2.487861707E+01  5.276321830E+01  1.500000000E+00  0.00000E+00  9.000E+00
      21     1     1     2   513   515  3.356604283E+01 -1.847896425E+00 -2.204881564E+02  2.230361430E+02  2.697398305E-06  0.00000E+00  9.000E+00
       2     1     1     2   515     0  1.284492692E+01  4.811594319E+00 -2.564675587E+02  2.568343068E+02  3.300000131E-01  0.00000E+00  9.000E+00
</event>
<event>
      5  10001  2.02673E+08  9.32636E+00 -1.00000E+00  1.99264E-01
      -1    -1     0     0     0   512  0.000000000E+00  0.000000000E+00  4.759381653E+01  4.759381653E+01  0.000000000E+00  0.00000E+00  9.000E+00
      21    -1     0     0   512   514  0.000000000E+00  0.000000000E+00 -8.316458774E+01  8.316458774E+01  0.000000000E+00  0.00000E+00  9.000E+00
      -1     1     1     2     0   511 -2.494941247E+01  2.111341861E+01  3.764699784E+01  4.985634337E+01  3.300000131E-01  0.00000E+00  9.000E+00
      21     1     1     2   513   514  1.707926094E+01 -7.585144913E+00 -4.248851448E+01  4.641669356E+01  4.768371582E-07  0.00000E+00  9.000E+00
      21     1     1     2   511   513  7.870151524E+00 -1.352827369E+01 -3.072925457E+01  3.448536734E+01  4.768371582E-07  0.00000E+00  9.000E+00
</event>
<event>
      5  10001  2.02673E+08  1.35253E+01 -1.00000E+00  1.81675E-01
      -1    -1     0     0     0   515  0.000000000E+00  0.000000000E+00  1.988402160E+01  1.988402160E+01  0.000000000E+00  0.00000E+00  9.000E+00
      21    -1     0     0   516   513  0.000000000E+00  0.000000000E+00 -9.288640173E+01  9.288640173E+01  0.000000000E+00  0.00000E+00  9.000E+00
      -1     1     1     2     0   513 -5.083536949E+00  3.488727996E+01 -6.172742163E+00  3.579352311E+01  3.300000131E-01  0.00000E+00  9.000E+00
      21     1     1     2   516   512  2.199090061E+00 -1.520978912E+01 -4.447920825E+01  4.705925678E+01  4.768371582E-07  0.00000E+00  9.000E+00
      21     1     1     2   512   515  2.884446888E+00 -1.967749084E+01 -2.235042972E+01  2.991764343E+01  4.768371582E-07  0.00000E+00  9.000E+00
</event>
<event>
      5  10001  2.02673E+08  2.08696E+01 -1.00000E+00  1.64817E-01
       1    -1     0     0   511     0  0.000000000E+00  0.000000000E+00  3.571143185E+00  3.571143185E+00  0.000000000E+00  0.00000E+00  9.000E+00
      -1    -1     0     0     0   511  0.000000000E+00  0.000000000E+00 -5.759198335E+02  5.759198335E+02  0.000000000E+00  0.00000E+00  9.000E+00
      -1     1     1     2     0   512 -3.147655363E+01 -4.056620272E+00 -3.749943038E+02  3.763350454E+02  3.300000131E-01  0.00000E+00  9.000E+00
       1     1     1     2   513     0  3.475462615E+01 -7.954749214E+00 -1.404082805E+02  1.448646134E+02  3.300000131E-01  0.00000E+00  9.000E+00
      21     1     1     2   512   513 -3.278072519E+00  1.201136949E+01 -5.694610595E+01  5.829131788E+01  9.536743164E-07  0.00000E+00  9.000E+00
</event>
<event>
      5  10001  2.02673E+08  1.56635E+01 -1.00000E+00  1.75584E-01
      21    -1     0     0   515   513  0.000000000E+00  0.000000000E+00  8.453172475E+02  8.453172475E+02  0.000000000E+00  0.00000E+00  9.000E+00
      -2    -1     0     0     0   514  0.000000000E+00  0.000000000E+00 -4.138729575E+01  4.138729575E+01  0.000000000E+00  0.00000E+00  9.000E+00
      -2     1     1     2     0   511 -4.410706612E+01 -3.070969083E+00 -2.486442842E+01  5.072684530E+01  3.300000131E-01  0.00000E+00  9.000E+00
      21     1     1     2   515   514  5.989463931E+01  2.679941469E+00  8.061156213E+02  8.083420964E+02  1.078959322E-05  0.00000E+00  9.000E+00
      21     1     1     2   511   513 -1.578757319E+01  3.910276138E-01  2.267875891E+01  2.763560159E+01  3.371747881E-07  0.00000E+00  9.000E+00
</event>
<event>
      5  10001  2.02673E+08  1.42308E+01 -1.00000E+00  1.79516E-01
      21    -1     0     0   512   514  0.000000000E+00  0.000000000E+00  2.749828631E+02  2.749828631E+02  0.000000000E+00  0.00000E+00  9.000E+00
      21    -1     0     0   513   512  0.000000000E+00  0.000000000E+00 -2.092120188E+01  2.092120188E+01  0.000000000E+00  0.00000E+00  9.000E+00
      21     1     1     2   516   514  1.017046734E+01  3.023147832E+01  2.580161004E+02  2.599801699E+02  0.000000000E+00  0.00000E+00  9.000E+00
      21     1     1     2   515   516  2.159447765E+00 -1.708984789E+01 -4.805756407E+00  1.788355139E+01  4.460403188E-07  0.00000E+00  9.000E+00
      21     1     1     2   513   515 -1.232991510E+01 -1.314163043E+01  8.513171782E-01  1.804034361E+01  2.731427965E-07  0.00000E+00  9.000E+00
</event>
<event>
      5  10001  2.02673E+08  1.39117E+01 -1.00000E+00  1.80472E-01
       2    -1     0     0   512     0  0.000000000E+00  0.000000000E+00  7.669368298E+02  7.669368298E+02  0.000000000E+00  0.00000E+00  9.000E+00
      21    -1     0     0   515   512  0.000000000E+00  0.000000000E+00 -3.768461816E+01  3.768461816E+01  0.000000000E+00  0.00000E+00  9.000E+00
      21     1     1     2   514   511  6.587247381E+01  2.410313974E+01  1.795188077E+01  7.240451764E+01  3.662655710E-06  0.00000E+00  9.000E+00
       2     1     1     2   511     0 -7.251407591E+01 -3.686911379E+01  7.130905208E+02  7.177156975E+02  3.300000131E-01  0.00000E+00  9.000E+00
      21     1     1     2   515   514  6.641602100E+00  1.276597405E+01 -1.790189927E+00  1.450123277E+01  9.459597020E-07  0.00000E+00  9.000E+00
</event>
<event>
      5  10001  2.02673E+08  1.70572E+01 -1.00000E+00  1.72237E-01
       2    -1     0     0   512     0  0.000000000E+00  0.000000000E+00  5.648955104E+02  5.648955104E+02  0.000000000E+00  0.00000E+00  9.000E+00
      21    -1     0     0   511   516  0.000000000E+00  0.000000000E+00 -1.359743176E+01  1.359743176E+01  0.000000000E+00  0.00000E+00  9.000E+00
      21     1     1     2   511   513 -3.413121894E+01  2.757307008E+01  3.990425151E+01  5.930905149E+01  2.431401974E-06  0.00000E+00  9.000E+00
       2     1     1     2   513     0  1.855178942E+01 -3.451764227E+01  4.911548009E+02  4.927157232E+02  3.300000131E-01  0.00000E+00  9.000E+00
      21     1     1     2   512   516  1.557942952E+01  6.944572193E+00  2.023902619E+01  2.646816745E+01  8.596304120E-07  0.00000E+00  9.000E+00
</event>
<event>
      5  10001  2.02673E+08  2.98058E+00 -1.00000E+00  2.97586E-01
      21    -1     0     0   517   513  0.000000000E+00  0.000000000E+00  7.785995310E+02  7.785995310E+02  0.000000000E+00  0.00000E+00  9.000E+00
      21    -1     0     0   511   515  0.000000000E+00  0.000000000E+00 -2.129454030E+00  2.129454030E+00  0.000000000E+00  0.00000E+00  9.000E+00
      21     1     1     2   514   515 -3.258477524E+01  1.347222198E+01  3.133581947E+02  3.153357362E+02  3.814697266E-06  0.00000E+00  9.000E+00
      21     1     1     2   511   513  2.979492982E+01 -1.242312668E+01  2.291731834E+02  2.314355632E+02  4.672030912E-06  0.00000E+00  9.000E+00
      21     1     1     2   517   514  2.789845416E+00 -1.049095303E+00  2.339386988E+02  2.339576856E+02  3.814697266E-06  0.00000E+00  9.000E+00
</event>
<event>
      5  10001  2.02673E+08  9.43577E+00 -1.00000E+00  1.98659E-01
      21    -1     0     0   512   513  0.000000000E+00  0.000000000E+00  2.905501895E+01  2.905501895E+01  0.000000000E+00  0.00000E+00  9.000E+00
      21    -1     0     0   516   512  0.000000000E+00  0.000000000E+00 -6.567162174E+01  6.567162174E+01  0.000000000E+00  0.00000E+00  9.000E+00
      21     1     1     2   511   513 -2.679885719E+01  1.798277426E+01  1.330613511E+01  3.490862570E+01  6.307962682E-07  0.00000E+00  9.000E+00
      21     1     1     2   515   511  1.105239709E+01 -3.884591631E+00 -1.558869945E+01  1.950007908E+01  2.384185791E-07  0.00000E+00  9.000E+00
      21     1     1     2   516   515  1.574646011E+01 -1.409818263E+01 -3.433403846E+01  4.031793591E+01  4.768371582E-07  0.00000E+00  9.000E+00
</event>
<event>
      5  10001  2.02673E+08  1.73126E+01 -1.00000E+00  1.71667E-01
      -1    -1     0     0     0   514  0.000000000E+00  0.000000000E+00  3.717357975E+02  3.717357975E+02  0.000000000E+00  0.00000E+00  9.000E+00
      21    -1     0     0   511   512  0.000000000E+00  0.000000000E+00 -7.566028013E+00  7.566028013E+00  0.000000000E+00  0.00000E+00  9.000E+00
      -1     1     1     2     0   513 -8.183326210E+00 -1.968271073E+01  2.926974441E+02  2.934727902E+02  3.300000131E-01  0.00000E+00  9.000E+00
      21     1     1     2   511   514  7.455530703E+00  3.229943795E+01  4.023103039E+01  5.212844172E+01  4.768371582E-07  0.00000E+00  9.000E+00
      21     1     1     2   513   512  7.277955066E-01 -1.261672723E+01  3.124129499E+01  3.370059354E+01  0.000000000E+00  0.00000E+00  9.000E+00
</event>
<event>
      5  10001  2.02673E+08  6.07931E+00 -1.00000E+00  2.24512E-01
      -1    -1     0     0     0   514  0.000000000E+00  0.000000000E+00  4.504124159E+00  4.504124159E+00  0.000000000E+00  0.00000E+00  9.000E+00
       1    -1     0     0   513     0  0.000000000E+00  0.000000000E+00 -2.338796236E+02  2.338796236E+02  0.000000000E+00  0.00000E+00  9.000E+00
      -5     1     1     2     0   514 -2.523240230E+01  1.503401362E+01 -1.361022995E+02  1.393182386E+02  4.800000191E+00  0.00000E+00  9.000E+00
      21     1     1     2   513   511  2.213271377E+01 -1.397642888E+01 -8.511626338E+01  8.905041198E+01  1.651812370E-06  0.00000E+00  9.000E+00
       5     1     1     2   511     0  3.099688527E+00 -1.057584736E+00 -8.156936572E+00  1.001509713E+01  4.800000191E+00  0.00000E+00  9.000E+00
</event>
<event>
      5  10001  2.02673E+08  9.05958E+00 -1.00000E+00  2.00788E-01
       2    -1     0     0   514     0  0.000000000E+00  0.000000000E+00  1.660426403E+02  1.660426403E+02  0.000000000E+00  0.00000E+00  9.000E+00
      21    -1     0     0   511   512  0.000000000E+00  0.000000000E+00 -4.205291719E+01  4.205291719E+01  0.000000000E+00  0.00000E+00  9.000E+00
      21     1     1     2   513   512 -3.451303867E+00  4.410175464E+01 -2.327478096E+01  4.998591492E+01  4.768371582E-07  0.00000E+00  9.000E+00
       2     1     1     2   511     0  1.209097441E+01 -4.682780335E+01  1.276059663E+02  1.364640112E+02  3.300000131E-01  0.00000E+00  9.000E+00
      21     1     1     2   514   513 -8.639670539E+00  2.726048705E+00  1.965853782E+01  2.164563138E+01  0.000000000E+00  0.00000E+00  9.000E+00
</event>
<event>
      5  10001  2.02673E+08  8.30897E+00 -1.00000E+00  2.05477E-01
      21    -1     0     0   515   511  0.000000000E+00  0.000000000E+00  1.051374017E+01  1.051374017E+01  0.000000000E+00  0.00000E+00  9.000E+00
      21    -1     0     0   516   513  0.000000000E+00  0.000000000E+00 -1.588872418E+02  1.588872418E+02  0.000000000E+00  0.00000E+00  9.000E+00
      21     1     1     2   515   513 -1.074804505E+01 -2.739287332E+01 -1.206025941E+02  1.241405481E+02  1.348699152E-06  0.00000E+00  9.000E+00
      21     1     1     2   512   511  4.686654515E+00  2.642326464E+01 -1.418930407E+01  3.035605368E+01  1.039242493E-06  0.00000E+00  9.000E+00
      21     1     1     2   516   512  6.061390540E+00  9.696086770E-01 -1.358160350E+01  1.490438023E+01  2.384185791E-07  0.00000E+00  9.000E+00
</event>
<event>
      5  10001  2.02673E+08  6.53232E+00 -1.00000E+00  2.19813E-01
      -1    -1     0     0     0   514  0.000000000E+00  0.000000000E+00  6.279116246E+01  6.279116246E+01  0.000000000E+00  0.00000E+00  9.000E+00
      21    -1     0     0   513   515  0.000000000E+00  0.000000000E+00 -1.251286727E+02  1.251286727E+02  0.000000000E+00  0.00000E+00  9.000E+00
      -1     1     1     2     0   511 -3.871240399E+01  3.875759503E+00  5.245892979E+01  6.531247928E+01  3.300000131E-01  0.00000E+00  9.000E+00
      21     1     1     2   511   515  3.435805659E+01 -8.745102348E+00 -8.489337602E+01  9.199912043E+01  9.536743164E-07  0.00000E+00  9.000E+00
      21     1     1     2   513   514  4.354347406E+00  4.869342844E+00 -2.990306397E+01  3.060823543E+01  4.768371582E-07  0.00000E+00  9.000E+00
</event>
<event>
      5  10001  2.02673E+08  8.74103E+00 -1.00000E+00  2.02701E-01
      21    -1     0     0   512   515  0.000000000E+00  0.000000000E+00  2.175634300E+01  2.175634300E+01  0.000000000E+00  0.00000E+00  9.000E+00
      21    -1     0     0   513   514  0.000000000E+00  0.000000000E+00 -5.799336639E+02  5.799336639E+02  0.000000000E+00  0.00000E+00  9.000E+00
      21     1     1     2   512   514 -2.828791181E+01  3.449134948E+01 -2.769115112E+02  2.804814507E+02  6.607249480E-06  0.00000E+00  9.000E+00
      21     1     1     2   513   511  3.568399117E+01 -2.983263028E+01 -2.983842442E+02  3.019875663E+02  5.394796609E-06  0.00000E+00  9.000E+00
      21     1     1     2   511   515 -7.396079359E+00 -4.658719203E+00  1.711843445E+01  1.922098989E+01  7.539457465E-07  0.00000E+00  9.000E+00
</event>
<event>
      5  10001  2.02673E+08  1.03266E+01 -1.00000E+00  1.94100E-01
       2    -1     0     0   513     0  0.000000000E+00  0.000000000E+00  1.147941415E+01  1.147941415E+01  0.000000000E+00  0.00000E+00  9.000E+00
      21    -1     0     0   511   516  0.000000000E+00  0.000000000E+00 -8.919494351E+01  8.919494351E+01  0.000000000E+00  0.00000E+00  9.000E+00
       5     1     1     2   513     0 -1.408676095E+01 -1.025261279E+01 -2.470442536E+01  3.060884737E+01  4.800000191E+00  0.00000E+00  9.000E+00
       2     1     1     2   511     0  1.769964105E+01  2.384345566E+01 -2.713804346E+01  4.022896934E+01  3.300000131E-01  0.00000E+00  9.000E+00
      -5     1     1     2     0   516 -3.612880102E+00 -1.359084287E+01 -2.587306054E+01  2.983654095E+01  4.800000191E+00  0.00000E+00  9.000E+00
</event>
<event>
      5  10001  2.02673E+08  8.66754E+00 -1.00000E+00  2.03158E-01
      21    -1     0     0   512   511  0.000000000E+00  0.000000000E+00  9.557780370E+01  9.557780370E+01  0.000000000E+00  0.00000E+00  9.000E+00
      21    -1     0     0   514   512  0.000000000E+00  0.000000000E+00 -1.658344716E+01  1.658344716E+01  0.000000000E+00  0.00000E+00  9.000E+00
      21     1     1     2   514   515 -3.016088897E+01  1.349499768E-01  3.976797884E+00  3.042223457E+01  3.318646170E-07  0.00000E+00  9.000E+00
      21     1     1     2   515   513  1.670505524E+01  4.265190846E-01  5.596961579E+01  5.841094658E+01  6.743495762E-07  0.00000E+00  9.000E+00
      21     1     1     2   513   511  1.345583373E+01 -5.614690614E-01  1.904794286E+01  2.332806971E+01  2.384185791E-07  0.00000E+00  9.000E+00
</event>
<event>
      5  10001  2.02673E+08  9.06202E+00 -1.00000E+00  2.00774E-01
      21    -1     0     0   516   515  0.000000000E+00  0.000000000E+00  6.026848795E+01  6.026848795E+01  0.000000000E+00  0.00000E+00  9.000E+00
      21    -1     0     0   514   512  0.000000000E+00  0.000000000E+00 -9.160150340E+01  9.160150340E+01  0.000000000E+00  0.00000E+00  9.000E+00
      21     1     1     2   516   511 -2.397354066E+01 -4.673731646E+01  2.320172097E+01  5.742322925E+01  1.118282261E-06  0.00000E+00  9.000E+00
      21     1     1     2   514   515  2.083495182E+01  3.823616939E+01 -4.702673994E+00  4.379743155E+01  1.006242217E-06  0.00000E+00  9.000E+00
      21     1     1     2   511   512  3.138588832E+00  8.501147067E+00 -4.983206242E+01  5.064933056E+01  6.743495762E-07  0.00000E+00  9.000E+00
</event>
<event>
      5  10001  2.02673E+08  1.80496E+01 -1.00000E+00  1.70088E-01
      21    -1     0     0   513   512  0.000000000E+00  0.000000000E+00  3.001316481E+01  3.001316481E+01  0.000000000E+00  0.00000E+00  9.000E+00
      21    -1     0     0   511   517  0.000000000E+00  0.000000000E+00 -4.826855516E+01  4.826855516E+01  0.000000000E+00  0.00000E+00  9.000E+00
      21     1     1     2   513   517 -2.547867186E+01 -1.274419559E+01 -2.536192457E+01  3.814189900E+01  0.000000000E+00  0.00000E+00  9.000E+00
      21     1     1     2   514   512  1.492620141E+01  9.883757125E+00  1.751449211E+01  2.504471156E+01  9.536743164E-07  0.00000E+00  9.000E+00
      21     1     1     2   511   514  1.055247045E+01  2.860438464E+00 -1.040795789E+01  1.509510942E+01  1.192092896E-07  0.00000E+00  9.000E+00
</event>
<event>
      5  10001  2.02673E+08  3.43402E+01 -1.00000E+00  1.49040E-01
      21    -1     0     0   515   514  0.000000000E+00  0.000000000E+00  8.461315333E+00  8.461315333E+00  0.000000000E+00  0.00000E+00  9.000E+00
      21    -1     0     0   511   515  0.000000000E+00  0.000000000E+00 -2.644667042E+02  2.644667042E+02  0.000000000E+00  0.00000E+00  9.000E+00
      21     1     1     2   511   516 -3.508069795E+01  4.462069879E+00 -1.589958360E+02  1.628810648E+02  1.907348633E-06  0.00000E+00  9.000E+00
      21     1     1     2   516   512  1.285305794E+01 -1.321722139E+01 -1.262201554E+01  2.234303730E+01  7.348554138E-07  0.00000E+00  9.000E+00
      21     1     1     2   512   514  2.222764001E+01  8.755151514E+00 -8.438753738E+01  8.770391737E+01  1.348699152E-06  0.00000E+00  9.000E+00
</event>
<event>
      5  10001  2.02673E+08  7.84693E+00 -1.00000E+00  2.08707E-01
      21    -1     0     0   515   511  0.000000000E+00  0.000000000E+00  2.869282368E+01  2.869282368E+01  0.000000000E+00  0.00000E+00  9.000E+00
       1    -1     0     0   511     0  0.000000000E+00  0.000000000E+00 -7.667901024E+01  7.667901024E+01  0.000000000E+00  0.00000E+00  9.000E+00
      21     1     1     2   513   512 -3.060629654E+01  1.996919516E+01 -4.819308216E+00  3.686108890E+01  2.149076030E-07  0.00000E+00  9.000E+00
       1     1     1     2   512     0  2.276034709E+01 -1.985259515E+01 -4.979497282E+01  5.823922348E+01  3.300000131E-01  0.00000E+00  9.000E+00
      21     1     1     2   515   513  7.845949450E+00 -1.166000187E-01  6.628094479E+00  1.027152154E+01  2.064765462E-07  0.00000E+00  9.000E+00
</event>
<event>
      5  10001  2.02673E+08  1.75178E+01 -1.00000E+00  1.71218E-01
      21    -1     0     0   514   512  0.000000000E+00  0.000000000E+00  9.674246116E+02  9.674246116E+02  0.000000000E+00  0.00000E+00  9.000E+00
      21    -1     0     0   511   516  0.000000000E+00  0.000000000E+00 -6.620090897E+01  6.620090897E+01  0.000000000E+00  0.00000E+00  9.000E+00
      21     1     1     2   514   513  1.416203564E+01 -3.681821620E+01  9.512092240E+02  9.520268547E+02  1.078959322E-05  0.00000E+00  9.000E+00
      21     1     1     2   511   512  2.947427162E+00  3.305784764E+01 -5.422456595E+01  6.357524809E+01  3.631483605E-06  0.00000E+00  9.000E+00
      21     1     1     2   513   516 -1.710946280E+01  3.760368554E+00  4.239044582E+00  1.802341777E+01  4.172325134E-07  0.00000E+00  9.000E+00
</event>
<event>
      5  10001  2.02673E+08  2.11333E+01 -1.00000E+00  1.64377E-01
      21    -1     0     0   515   511  0.000000000E+00  0.000000000E+00  4.647537550E+01  4.647537550E+01  0.000000000E+00  0.00000E+00  9.000E+00
      21    -1     0     0   513   517  0.000000000E+00  0.000000000E+00 -5.709856468E+01  5.709856468E+01  0.000000000E+00  0.00000E+00  9.000E+00
      21     1     1     2   515   517 -2.829655613E+01 -3.354743861E+01 -2.765649333E+01  5.187492024E+01  3.371747881E-07  0.00000E+00  9.000E+00
      21     1     1     2   512   511  5.601689385E+00  2.244295277E+01  1.150800093E+01  2.583600469E+01  5.057621821E-07  0.00000E+00  9.000E+00
      21     1     1     2   513   512  2.269486675E+01  1.110448584E+01  5.525303214E+00  2.586301526E+01  6.474721725E-07  0.00000E+00  9.000E+00
</event>
<event>
      5  10001  2.02673E+08  2.69827E+01 -1.00000E+00  1.56271E-01
      21    -1     0     0   512   511  0.000000000E+00  0.000000000E+00  2.024103736E+02  2.024103736E+02  0.000000000E+00  0.00000E+00  9.000E+00
       2    -1     0     0   511     0  0.000000000E+00  0.000000000E+00 -6.891718770E+01  6.891718770E+01  0.000000000E+00  0.00000E+00  9.000E+00
      21     1     1     2   512   513  1.946871197E+01 -3.643531973E+01  1.921395544E+02  1.965303326E+02  0.000000000E+00  0.00000E+00  9.000E+00
       2     1     1     2   514     0 -3.023665873E+00  5.156529262E+00 -2.602267618E+01  2.670245166E+01  3.300000131E-01  0.00000E+00  9.000E+00
      21     1     1     2   513   514 -1.644504610E+01  3.127879046E+01 -3.262369234E+01  4.809477701E+01  1.168007728E-06  0.00000E+00  9.000E+00
</event>
<event>
      5  10001  2.02673E+08  6.95880E+01 -1.00000E+00  1.31325E-01
      21    -1     0     0   515   513  0.000000000E+00  0.000000000E+00  1.127320743E+02  1.127320743E+02  0.000000000E+00  0.00000E+00  9.000E+00
      21    -1     0     0   511   516  0.000000000E+00  0.000000000E+00 -7.402326680E+01  7.402326680E+01  0.000000000E+00  0.00000E+00  9.000E+00
      21     1     1     2   515   516  5.953465410E+00  3.416309639E+01 -5.162261632E+01  6.218886895E+01  9.536743164E-07  0.00000E+00  9.000E+00
      21     1     1     2   512   513 -1.129767900E+01 -5.473221892E+01  3.665092013E+01  6.683220246E+01  6.743495762E-07  0.00000E+00  9.000E+00
      21     1     1     2   511   512  5.344213591E+00  2.056912253E+01  5.368050367E+01  5.773426968E+01  6.743495762E-07  0.00000E+00  9.000E+00
</event>
<event>
      5  10001  2.02673E+08  1.21794E+01 -1.00000E+00  1.86300E-01
       1    -1     0     0   514     0  0.000000000E+00  0.000000000E+00  5.555733962E+02  5.555733962E+02  0.000000000E+00  0.00000E+00  9.000E+00
       2    -1     0     0   511     0  0.000000000E+00  0.000000000E+00 -3.709803868E+00  3.709803868E+00  0.000000000E+00  0.00000E+00  9.000E+00
       1     1     1     2   513     0  5.734589528E-01 -1.470160678E+01  1.456337625E+02  1.463754343E+02  3.300000131E-01  0.00000E+00  9.000E+00
       2     1     1     2   514     0  9.377310209E+00  4.119593756E+01  1.788223488E+02  1.837459675E+02  3.300000131E-01  0.00000E+00  9.000E+00
      21     1     1     2   511   513 -9.950769162E+00 -2.649433078E+01  2.274074810E+02  2.291617983E+02  2.697398305E-06  0.00000E+00  9.000E+00
</event>
<event>
      5  10001  2.02673E+08  1.68211E+01 -1.00000E+00  1.72775E-01
      21    -1     0     0   514   515  0.000000000E+00  0.000000000E+00  1.241684771E+02  1.241684771E+02  0.000000000E+00  0.00000E+00  9.000E+00
      21    -1     0     0   511   513  0.000000000E+00  0.000000000E+00 -1.077850652E+02  1.077850652E+02  0.000000000E+00  0.00000E+00  9.000E+00
      21     1     1     2   512   513 -1.963597358E+01 -2.260408488E+01 -9.923720728E+01  1.036558702E+02  0.000000000E+00  0.00000E+00  9.000E+00
      21     1     1     2   511   515  7.541185268E+00  3.429451688E+01  5.392262284E+01  6.434774757E+01  1.348699152E-06  0.00000E+00  9.000E+00
      21     1     1     2   514   512  1.209478831E+01 -1.169043200E+01  6.169799634E+01  6.394992461E+01  0.000000000E+00  0.00000E+00  9.000E+00
</event>
<event>
      5  10001  2.02673E+08  1.38395E+01 -1.00000E+00  1.80693E-01
      21    -1     0     0   516   511  0.000000000E+00  0.000000000E+00  2.839494260E+01  2.839494260E+01  0.000000000E+00  0.00000E+00  9.000E+00
       2    -1     0     0   514     0  0.000000000E+00  0.000000000E+00 -4.559349214E+01  4.559349214E+01  0.000000000E+00  0.00000E+00  9.000E+00
      21     1     1     2   514   513  3.370186856E+00 -3.068515189E+01  1.544390365E+00  3.090828122E+01  5.475036225E-07  0.00000E+00  9.000E+00
       2     1     1     2   516     0 -2.083865602E+00  2.630708625E+01 -2.431022597E+01  3.588176793E+01  3.300000131E-01  0.00000E+00  9.000E+00
      21     1     1     2   513   511 -1.286321255E+00  4.378065640E+00  5.567286066E+00  7.198385601E+00  5.960464478E-08  0.00000E+00  9.000E+00
</event>
<event>
      5  10001  2.02673E+08  1.78612E+01 -1.00000E+00  1.70483E-01
      21    -1     0     0   512   514  0.000000000E+00  0.000000000E+00  4.917149329E+01  4.917149329E+01  0.000000000E+00  0.00000E+00  9.000E+00
      21    -1     0     0   513   511  0.000000000E+00  0.000000000E+00 -2.932642960E+01  2.932642960E+01  0.000000000E+00  0.00000E+00  9.000E+00
      21     1     1     2   512   511  2.797918654E+01 -7.350897695E+00 -1.262319666E+01  3.156288438E+01  2.920019320E-07  0.00000E+00  9.000E+00
      21     1     1     2   515   514 -1.007139991E+01  1.131205473E+01  1.832823813E+01  2.377645876E+01  4.129530925E-07  0.00000E+00  9.000E+00
      21     1     1     2   513   515 -1.790778664E+01 -3.961157031E+00  1.414002222E+01  2.315857974E+01  4.129530925E-07  0.00000E+00  9.000E+00
</event>
<event>
      5  10001  2.02673E+08  5.57628E+00 -1.00000E+00  2.30446E-01
      -2    -1     0     0     0   516  0.000000000E+00  0.000000000E+00  1.830091660E+02  1.830091660E+02  0.000000000E+00  0.00000E+00  9.000E+00
      21    -1     0     0   516   512  0.000000000E+00  0.000000000E+00 -1.572378297E+01  1.572378297E+01  0.000000000E+00  0.00000E+00  9.000E+00
      -2     1     1     2     0   513 -2.964444806E+01 -8.375168982E+00  1.642414696E+02  1.671056731E+02  3.300000131E-01  0.00000E+00  9.000E+00
       2     1     1     2   513     0  1.482745064E+01  3.278352078E+00 -1.620454699E+00  1.527532842E+01  3.300000131E-01  0.00000E+00  9.000E+00
      -2     1     1     2     0   512  1.481699742E+01  5.096816904E+00  4.664368173E+00  1.635194746E+01  3.300000131E-01  0.00000E+00  9.000E+00
</event>
<event>
      5  10001  2.02673E+08  6.81996E+00 -1.00000E+00  2.17093E-01
      21    -1     0     0   511   515  0.000000000E+00  0.000000000E+00  8.351557014E+01  8.351557014E+01  0.000000000E+00  0.00000E+00  9.000E+00
      21    -1     0     0   514   511  0.000000000E+00  0.000000000E+00 -1.631738381E+01  1.631738381E+01  0.000000000E+00  0.00000E+00  9.000E+00
      21     1     1     2   512   515  1.899836449E+01 -3.017866383E+01  2.653540849E+01  4.445016882E+01  4.768371582E-07  0.00000E+00  9.000E+00
      21     1     1     2   513   512 -1.363450356E+01  2.359599499E+01  3.742348119E+01  4.629457432E+01  4.768371582E-07  0.00000E+00  9.000E+00
      21     1     1     2   514   513 -5.363860929E+00  6.582668839E+00  3.239296639E+00  9.088210816E+00  7.300048300E-08  0.00000E+00  9.000E+00
</event>
<event>
      5  10001  2.02673E+08  3.92827E+01 -1.00000E+00  1.45298E-01
       2    -1     0     0   511     0  0.000000000E+00  0.000000000E+00  5.436510325E+02  5.436510325E+02  0.000000000E+00  0.00000E+00  9.000E+00
      -2    -1     0     0     0   511  0.000000000E+00  0.000000000E+00 -4.011466323E+00  4.011466323E+00  0.000000000E+00  0.00000E+00  9.000E+00
      -2     1     1     2     0   512 -1.194594668E+01  3.394875672E+01  3.757925286E+02  3.775120622E+02  3.300000131E-01  0.00000E+00  9.000E+00
       2     1     1     2   515     0  1.592198799E+01 -6.062311137E+00  7.645223829E+01  7.832825134E+01  3.300000131E-01  0.00000E+00  9.000E+00
      21     1     1     2   512   515 -3.976041307E+00 -2.788644558E+01  8.739479930E+01  9.182218521E+01  0.000000000E+00  0.00000E+00  9.000E+00
</event>
<event>
      5  10001  2.02673E+08  1.02853E+01 -1.00000E+00  1.94298E-01
      21    -1     0     0   511   514  0.000000000E+00  0.000000000E+00  7.779952850E+00  7.779952850E+00  0.000000000E+00  0.00000E+00  9.000E+00
       2    -1     0     0   514     0  0.000000000E+00  0.000000000E+00 -5.176900861E+02  5.176900861E+02  0.000000000E+00  0.00000E+00  9.000E+00
      21     1     1     2   512   513 -2.603223536E+01  6.851499041E+00 -3.682274777E+02  3.692100969E+02  0.000000000E+00  0.00000E+00  9.000E+00
       2     1     1     2   513     0  3.091617398E+01 -1.590311188E+01 -1.417733825E+02  1.459743802E+02  3.300000131E-01  0.00000E+00  9.000E+00
      21     1     1     2   511   512 -4.883938616E+00  9.051612842E+00  9.072697049E-02  1.028556186E+01  2.784358577E-07  0.00000E+00  9.000E+00
</event>
<event>
      5  10001  2.02673E+08  2.16504E+01 -1.00000E+00  1.63537E-01
       1    -1     0     0   511     0  0.000000000E+00  0.000000000E+00  2.174321440E+02  2.174321440E+02  0.000000000E+00  0.00000E+00  9.000E+00
       1    -1     0     0   512     0  0.000000000E+00  0.000000000E+00 -2.514841736E+02  2.514841736E+02  0.000000000E+00  0.00000E+00  9.000E+00
       1     1     1     2   511     0 -3.694041671E+01 -1.669133380E+01 -2.429162683E+02  2.462754907E+02  3.300000131E-01  0.00000E+00  9.000E+00
       1     1     1     2   513     0  4.524890217E+01  2.979333366E+01  1.929655113E+02  2.004268029E+02  3.300000131E-01  0.00000E+00  9.000E+00
      21     1     1     2   512   513 -8.308485458E+00 -1.310199986E+01  1.589872730E+01  2.221402396E+01  2.384185791E-07  0.00000E+00  9.000E+00
</event>
<event>
      5  10001  2.02673E+08  3.87930E+01 -1.00000E+00  1.45639E-01
      21    -1     0     0   514   513  0.000000000E+00  0.000000000E+00  8.458332935E+01  8.458332935E+01  0.000000000E+00  0.00000E+00  9.000E+00
      21    -1     0     0   512   515  0.000000000E+00  0.000000000E+00 -4.034376418E+01  4.034376418E+01  0.000000000E+00  0.00000E+00  9.000E+00
      21     1     1     2   514   515  6.630706765E+00 -3.370556177E+01  6.854814336E+01  7.667384902E+01  1.348699152E-06  0.00000E+00  9.000E+00
      21     1     1     2   511   513 -1.168273129E+01  7.091281248E+00 -3.537065942E+00  1.411677427E+01  3.397987560E-07  0.00000E+00  9.000E+00
      21     1     1     2   512   511  5.052024528E+00  2.661428052E+01 -2.077151225E+01  3.413647024E+01  8.920806376E-07  0.00000E+00  9.000E+00
</event>
<event>
      5  10001  2.02673E+08  2.49954E+01 -1.00000E+00  1.58719E-01
      -2    -1     0     0     0   512  0.000000000E+00  0.000000000E+00  1.256750953E+01  1.256750953E+01  0.000000000E+00  0.00000E+00  9.000E+00
       1    -1     0     0   514     0  0.000000000E+00  0.000000000E+00 -3.653962362E+02  3.653962362E+02  0.000000000E+00  0.00000E+00  9.000E+00
      -2     1     1     2     0   513  1.316990594E+01  2.620342470E+01 -1.585778153E+01  3.334132606E+01  3.300000131E-01  0.00000E+00  9.000E+00
       1     1     1     2   513     0 -3.811602581E+01 -2.464108595E+01 -2.518608425E+02  2.559179701E+02  3.300000131E-01  0.00000E+00  9.000E+00
      21     1     1     2   514   512  2.494611987E+01 -1.562338750E+00 -8.511010263E+01  8.870444954E+01  1.348699152E-06  0.00000E+00  9.000E+00
</event>
<event>
      5  10001  2.02673E+08  1.42787E+01 -1.00000E+00  1.79375E-01
       2    -1     0     0   515     0  0.000000000E+00  0.000000000E+00  1.186624417E+03  1.186624417E+03  0.000000000E+00  0.00000E+00  9.000E+00
      21    -1     0     0   513   515  0.000000000E+00  0.000000000E+00 -1.315336700E+00  1.315336700E+00  0.000000000E+00  0.00000E+00  9.000E+00
      21     1     1     2   513   511 -3.040203874E+01  9.579651386E+00  2.631744942E+02  2.650978462E+02  0.000000000E+00  0.00000E+00  9.000E+00
       2     1     1     2   516     0  2.292308259E+01 -5.915731923E+00  4.408947068E+02  4.415299707E+02  3.300000131E-01  0.00000E+00  9.000E+00
      21     1     1     2   511   516  7.478956154E+00 -3.663919463E+00  4.812398797E+02  4.813119372E+02  7.629394531E-06  0.00000E+00  9.000E+00
</event>
<event>
      5  10001  2.02673E+08  2.36433E+01 -1.00000E+00  1.60549E-01
      21    -1     0     0   511   513  0.000000000E+00  0.000000000E+00  5.093608911E+01  5.093608911E+01  0.000000000E+00  0.00000E+00  9.000E+00
       1    -1     0     0   513     0  0.000000000E+00  0.000000000E+00 -5.207032598E+02  5.207032598E+02  0.000000000E+00  0.00000E+00  9.000E+00
      21     1     1     2   511   514 -3.282221753E+00  2.072439067E+01  4.170894919E+01  4.668950408E+01  4.473129043E-06  0.00000E+00  9.000E+00
       1     1     1     2   512     0 -5.149293993E+00 -4.171167720E+01 -4.954510138E+02  4.972305252E+02  3.300000131E-01  0.00000E+00  9.000E+00
      21     1     1     2   514   512  8.431515745E+00  2.098728654E+01 -1.602510605E+01  2.771931958E+01  3.371747881E-07  0.00000E+00  9.000E+00
</event>
<event>
      5  10001  2.02673E+08  2.03442E+01 -1.00000E+00  1.65719E-01
       1    -1     0     0   515     0  0.000000000E+00  0.000000000E+00  2.186511528E+02  2.186511528E+02  0.000000000E+00  0.00000E+00  9.000E+00
       1    -1     0     0   513     0  0.000000000E+00  0.000000000E+00 -1.323191358E+02  1.323191358E+02  0.000000000E+00  0.00000E+00  9.000E+00
      21     1     1     2   513   512 -3.631964224E+01  2.612539797E+01  8.414489449E+01  9.529961228E+01  1.348699152E-06  0.00000E+00  9.000E+00
       1     1     1     2   515     0  5.653492802E+01 -2.383944826E+01 -1.184135639E+02  1.333656567E+02  3.300000131E-01  0.00000E+00  9.000E+00
       1     1     1     2   512     0 -2.021528578E+01 -2.285949712E+00  1.206006864E+02  1.223050195E+02  3.300000131E-01  0.00000E+00  9.000E+00
</event>
<event>
      5  10001  2.02673E+08  1.30337E+01 -1.00000E+00  1.83281E-01
      21    -1     0     0   512   513  0.000000000E+00  0.000000000E+00  4.416153783E+00  4.416153783E+00  0.000000000E+00  0.00000E+00  9.000E+00
       1    -1     0     0   513     0  0.000000000E+00  0.000000000E+00 -5.561823062E+02  5.561823062E+02  0.000000000E+00  0.00000E+00  9.000E+00
      21     1     1     2   512   514  2.044973498E+01  4.843239960E+00 -3.149769967E+01  3.786494049E+01  1.685873940E-06  0.00000E+00  9.000E+00
       1     1     1     2   511     0 -2.516395334E+01 -1.674689844E+01 -4.658290250E+02  4.668088180E+02  3.300000131E-01  0.00000E+00  9.000E+00
      21     1     1     2   514   511  4.714218353E+00  1.190365848E+01 -5.443942778E+01  5.592470149E+01  6.743495762E-07  0.00000E+00  9.000E+00
</event>
<event>
      5  10001  2.02673E+08  2.44402E+01 -1.00000E+00  1.59453E-01
      21    -1     0     0   512   511  0.000000000E+00  0.000000000E+00  1.138620618E+02  1.138620618E+02  0.000000000E+00  0.00000E+00  9.000E+00
      21    -1     0     0   513   516  0.000000000E+00  0.000000000E+00 -9.323915001E+01  9.323915001E+01  0.000000000E+00  0.00000E+00  9.000E+00
      21     1     1     2   515   516  2.729848847E+01  3.613280572E+00 -3.473493920E+01  4.432583074E+01  6.743495762E-07  0.00000E+00  9.000E+00
      21     1     1     2   513   511 -2.842055245E+01 -2.802771936E+01 -4.461137464E+01  5.986197124E+01  1.066240300E-06  0.00000E+00  9.000E+00
      21     1     1     2   512   515  1.122063982E+00  2.441443878E+01  9.996922568E+01  1.029134099E+02  0.000000000E+00  0.00000E+00  9.000E+00
</event>
<event>
      5  10001  2.02673E+08  1.69203E+01 -1.00000E+00  1.72548E-01
       2    -1     0     0   513     0  0.000000000E+00  0.000000000E+00  4.552206721E+02  4.552206721E+02  0.000000000E+00  0.00000E+00  9.000E+00
      21    -1     0     0   512   514  0.000000000E+00  0.000000000E+00 -3.587603754E+00  3.587603754E+00  0.000000000E+00  0.00000E+00  9.000E+00
      21     1     1     2   513   514 -2.582599458E+01  9.493178107E+00  6.843780750E+01  7.376202222E+01  9.536743164E-07  0.00000E+00  9.000E+00
       2     1     1     2   511     0  2.672273551E+01  1.380145672E+00  2.641129040E+02  2.654651471E+02  3.300000131E-01  0.00000E+00  9.000E+00
      21     1     1     2   512   511 -8.967409294E-01 -1.087332378E+01  1.190823569E+02  1.195811066E+02  1.348699152E-06  0.00000E+00  9.000E+00
</event>
<event>
      5  10001  2.02673E+08  2.37261E+01 -1.00000E+00  1.60432E-01
      21    -1     0     0   515   516  0.000000000E+00  0.000000000E+00  1.820126165E+01  1.820126165E+01  0.000000000E+00  0.00000E+00  9.000E+00
      21    -1     0     0   512   515  0.000000000E+00  0.000000000E+00 -6.156120464E+01  6.156120464E+01  0.000000000E+00  0.00000E+00  9.000E+00
      21     1     1     2   511   516  1.890530788E+01 -2.137801629E+01 -3.195253114E+01  4.284150432E+01  4.768371582E-07  0.00000E+00  9.000E+00
      21     1     1     2   513   511 -6.141682913E+00  1.364567185E+01 -1.540010499E+01  2.147295655E+01  4.460403188E-07  0.00000E+00  9.000E+00
      21     1     1     2   512   513 -1.276362497E+01  7.732344440E+00  3.992693144E+00  1.544800542E+01  2.384185791E-07  0.00000E+00  9.000E+00
</event>
<event>
      5  10001  2.02673E+08  6.50519E+01 -1.00000E+00  1.32827E-01
      21    -1     0     0   514   513  0.000000000E+00  0.000000000E+00  7.085771616E+01  7.085771616E+01  0.000000000E+00  0.00000E+00  9.000E+00
      21    -1     0     0   512   517  0.000000000E+00  0.000000000E+00 -3.503013299E+01  3.503013299E+01  0.000000000E+00  0.00000E+00  9.000E+00
      21     1     1     2   514   517  1.610491353E+01 -1.716256919E+01 -4.638409951E-01  2.354011830E+01  8.325836300E-07  0.00000E+00  9.000E+00
      21     1     1     2   512   511 -2.717469129E+01 -9.523274197E+00  4.387321964E+01  5.247871950E+01  6.743495762E-07  0.00000E+00  9.000E+00
      21     1     1     2   511   513  1.106977776E+01  2.668584338E+01 -7.581795474E+00  2.986901136E+01  7.907449699E-07  0.00000E+00  9.000E+00
</event>
<event>
      5  10001  2.02673E+08  1.12184E+01 -1.00000E+00  1.90102E-01
      21    -1     0     0   511   512  0.000000000E+00  0.000000000E+00  3.167065733E+02  3.167065733E+02  0.000000000E+00  0.00000E+00  9.000E+00
      -5    -1     0     0     0   515  0.000000000E+00  0.000000000E+00 -6.752325257E+01  6.752325257E+01  0.000000000E+00  0.00000E+00  9.000E+00
      -5     1     1     2     0   514  2.575547253E+01 -2.529431213E+01 -2.269388933E+01  4.290919722E+01  4.800000191E+00  0.00000E+00  9.000E+00
      21     1     1     2   511   515 -4.546309278E+01  3.964523043E+01  2.989000069E+02  3.049259766E+02  5.394796609E-06  0.00000E+00  9.000E+00
      21     1     1     2   514   512  1.970762025E+01 -1.435091829E+01 -2.702279679E+01  3.639465206E+01  1.685873940E-06  0.00000E+00  9.000E+00
</event>
<event>
      5  10001  2.02673E+08  1.98944E+01 -1.00000E+00  1.66517E-01
      21    -1     0     0   513   511  0.000000000E+00  0.000000000E+00  4.133087751E+02  4.133087751E+02  0.000000000E+00  0.00000E+00  9.000E+00
      21    -1     0     0   512   513  0.000000000E+00  0.000000000E+00 -4.097175209E+01  4.097175209E+01  0.000000000E+00  0.00000E+00  9.000E+00
      21     1     1     2   516   515  3.071056071E+01 -2.402102946E+01  1.860995664E+02  1.901399406E+02  3.814697266E-06  0.00000E+00  9.000E+00
      21     1     1     2   512   516 -1.139070406E+01  2.876771912E+01 -3.228321922E+01  4.471617208E+01  1.581489940E-06  0.00000E+00  9.000E+00
      21     1     1     2   515   511 -1.931985665E+01 -4.746689659E+00  2.185206758E+02  2.194244145E+02  2.697398305E-06  0.00000E+00  9.000E+00
</event>
<event>
      5  10001  2.02673E+08  5.09199E+00 -1.00000E+00  2.37054E-01
      21    -1     0     0   514   512  0.000000000E+00  0.000000000E+00  5.258441061E+00  5.258441061E+00  0.000000000E+00  0.00000E+00  9.000E+00
       2    -1     0     0   515     0  0.000000000E+00  0.000000000E+00 -4.875321464E+02  4.875321464E+02  0.000000000E+00  0.00000E+00  9.000E+00
      21     1     1     2   514   511 -7.758719291E+00 -3.032587653E+01 -9.564424119E+01  1.006363621E+02  1.348699152E-06  0.00000E+00  9.000E+00
      21     1     1     2   515   512  1.259859588E+01  2.874378100E+01 -8.710384380E+01  9.258514551E+01  2.336015456E-06  0.00000E+00  9.000E+00
       2     1     1     2   511     0 -4.839876590E+00  1.582095530E+00 -2.995256204E+02  2.995690798E+02  3.300000131E-01  0.00000E+00  9.000E+00
</event>
<event>
      5  10001  2.02673E+08  2.49632E+01 -1.00000E+00  1.58761E-01
      21    -1     0     0   513   511  0.000000000E+00  0.000000000E+00  5.321709996E+01  5.321709996E+01  0.000000000E+00  0.00000E+00  9.000E+00
      -1    -1     0     0     0   513  0.000000000E+00  0.000000000E+00 -9.142433344E+01  9.142433344E+01  0.000000000E+00  0.00000E+00  9.000E+00
      21     1     1     2   516   517 -3.242472964E+01 -2.276107837E+01  2.643980494E+01  4.762870003E+01  5.840038640E-07  0.00000E+00  9.000E+00
      21     1     1     2   517   511  7.532736001E+00  2.464266376E+01  1.997578933E+00  2.584556655E+01  4.334163538E-07  0.00000E+00  9.000E+00
      -1     1     1     2     0   516  2.489199364E+01 -1.881585387E+00 -6.664461735E+01  7.116716682E+01  3.300000131E-01  0.00000E+00  9.000E+00
</event>
<event>
      5  10001  2.02673E+08  7.61466E+00 -1.00000E+00  2.10446E-01
      21    -1     0     0   512   511  0.000000000E+00  0.000000000E+00  2.572256331E+01  2.572256331E+01  0.000000000E+00  0.00000E+00  9.000E+00
      21    -1     0     0   514   512  0.000000000E+00  0.000000000E+00 -1.110692021E+02  1.110692021E+02  0.000000000E+00  0.00000E+00  9.000E+00
      21     1     1     2   515   511  4.885877604E+00  3.002536746E+01  1.315272037E+01  3.314194539E+01  2.920019320E-07  0.00000E+00  9.000E+00
      -1     1     1     2     0   515 -5.964781158E+00 -2.355462194E+01 -6.253342588E+01  6.708902355E+01  3.300000131E-01  0.00000E+00  9.000E+00
       1     1     1     2   514     0  1.078903554E+00 -6.470745528E+00 -3.596593333E+01  3.656079650E+01  3.300000131E-01  0.00000E+00  9.000E+00
</event>
<event>
      5  10001  2.02673E+08  2.42022E+01 -1.00000E+00  1.59775E-01
      21    -1     0     0   514   515  0.000000000E+00  0.000000000E+00  7.099390265E+00  7.099390265E+00  0.000000000E+00  0.00000E+00  9.000E+00
      -5    -1     0     0     0   513  0.000000000E+00  0.000000000E+00 -1.729990356E+02  1.729990356E+02  0.000000000E+00  0.00000E+00  9.000E+00
      -5     1     1     2     0   515 -2.455032825E+01  1.035582658E+00 -9.544738386E+01  9.867641125E+01  4.800000191E+00  0.00000E+00  9.000E+00
      21     1     1     2   514   511  1.961230013E+01  1.285153241E+01 -2.821150696E+01  3.668369292E+01  8.259061849E-07  0.00000E+00  9.000E+00
      21     1     1     2   511   513  4.938028117E+00 -1.388711506E+01 -4.224075452E+01  4.473832171E+01  1.066240300E-06  0.00000E+00  9.000E+00
</event>
<event>
      5  10001  2.02673E+08  3.48957E+01 -1.00000E+00  1.48583E-01
      21    -1     0     0   512   513  0.000000000E+00  0.000000000E+00  6.179895758E+01  6.179895758E+01  0.000000000E+00  0.00000E+00  9.000E+00
      21    -1     0     0   515   516  0.000000000E+00  0.000000000E+00 -5.956412024E+01  5.956412024E+01  0.000000000E+00  0.00000E+00  9.000E+00
      21     1     1     2   512   516  2.540900525E+01  4.180747831E+01  1.993387096E+01  5.282842039E+01  0.000000000E+00  0.00000E+00  9.000E+00
      21     1     1     2   514   513 -1.431185777E+01 -2.285453034E+01 -3.236404144E+01  4.212588288E+01  0.000000000E+00  0.00000E+00  9.000E+00
      21     1     1     2   515   514 -1.109714748E+01 -1.895294796E+01  1.466500782E+01  2.640877454E+01  3.769728732E-07  0.00000E+00  9.000E+00
</event>
<event>
      5  10001  2.02673E+08  1.16847E+01 -1.00000E+00  1.88198E-01
      -3    -1     0     0     0   513  0.000000000E+00  0.000000000E+00  3.596480032E+00  3.596480032E+00  0.000000000E+00  0.00000E+00  9.000E+00
       1    -1     0     0   514     0  0.000000000E+00  0.000000000E+00 -8.340624569E+02  8.340624569E+02  0.000000000E+00  0.00000E+00  9.000E+00
      21     1     1     2   514   513 -3.746340183E+01  2.298906043E+01 -5.650152726E+02  5.667223850E+02  7.629394531E-06  0.00000E+00  9.000E+00
       1     1     1     2   511     0  2.577944591E+01 -2.297857721E+01 -2.446346584E+02  2.470603566E+02  3.300000131E-01  0.00000E+00  9.000E+00
      -3     1     1     2     0   511  1.168395592E+01 -1.048322393E-02 -2.081604589E+01  2.387619531E+01  5.000000000E-01  0.00000E+00  9.000E+00
</event>
<event>
      5  10001  2.02673E+08  8.68990E+00 -1.00000E+00  2.03019E-01
      21    -1     0     0   512   511  0.000000000E+00  0.000000000E+00  3.823332151E+01  3.823332151E+01  0.000000000E+00  0.00000E+00  9.000E+00
      21    -1     0     0   513   515  0.000000000E+00  0.000000000E+00 -4.677867633E+01  4.677867633E+01  0.000000000E+00  0.00000E+00  9.000E+00
      21     1     1     2   512   515  2.115794963E+01 -2.340036180E+01  2.214780133E+01  3.854556873E+01  6.307962682E-07  0.00000E+00  9.000E+00
      21     1     1     2   514   511 -1.163632206E+01  1.800563780E+01 -2.787510362E+01  3.516572743E+01  0.000000000E+00  0.00000E+00  9.000E+00
      21     1     1     2   513   514 -9.521627566E+00  5.394724003E+00 -2.818052530E+00  1.130070169E+01  1.228781231E-07  0.00000E+00  9.000E+00
</event>
<event>
      5  10001  2.02673E+08  1.35899E+01 -1.00000E+00  1.81471E-01
      21    -1     0     0   516   511  0.000000000E+00  0.000000000E+00  4.386594530E+01  4.386594530E+01  0.000000000E+00  0.00000E+00  9.000E+00
      21    -1     0     0   513   516  0.000000000E+00  0.000000000E+00 -3.776459300E+02  3.776459300E+02  0.000000000E+00  0.00000E+00  9.000E+00
      21     1     1     2   514   511  7.002215244E+00 -3.262500099E+01  3.548556504E+01  4.870982482E+01  6.743495762E-07  0.00000E+00  9.000E+00
      21     1     1     2   512   514 -2.179902366E+00  2.041801791E+01 -3.412196721E+02  3.418369671E+02  3.814697266E-06  0.00000E+00  9.000E+00
      21     1     1     2   513   512 -4.822312878E+00  1.220698308E+01 -2.804587762E+01  3.096508338E+01  0.000000000E+00  0.00000E+00  9.000E+00
</event>
<event>
      5  10001  2.02673E+08  2.83176E+01 -1.00000E+00  1.54765E-01
      21    -1     0     0   515   511  0.000000000E+00  0.000000000E+00  1.004884664E+02  1.004884664E+02  0.000000000E+00  0.00000E+00  9.000E+00
      21    -1     0     0   513   515  0.000000000E+00  0.000000000E+00 -1.721760213E+01  1.721760213E+01  0.000000000E+00  0.00000E+00  9.000E+00
      21     1     1     2   513   517  3.252707517E+01  1.775356652E+01  2.786578381E+01  4.636487518E+01  9.536743164E-07  0.00000E+00  9.000E+00
      21     1     1     2   517   514 -2.008040971E+01  3.002545854E+00  2.037923190E+01  2.876719014E+01  4.129530925E-07  0.00000E+00  9.000E+00
      21     1     1     2   514   511 -1.244666546E+01 -2.075611237E+01  3.502584856E+01  4.257400321E+01  8.259061849E-07  0.00000E+00  9.000E+00
</event>
<event>
      5  10001  2.02673E+08  1.13649E+01 -1.00000E+00  1.89491E-01
      21    -1     0     0   512   516  0.000000000E+00  0.000000000E+00  1.016256500E+03  1.016256500E+03  0.000000000E+00  0.00000E+00  9.000E+00
      21    -1     0     0   513   511  0.000000000E+00  0.000000000E+00 -6.608151396E+01  6.608151396E+01  0.000000000E+00  0.00000E+00  9.000E+00
      21     1     1     2   512   511 -4.911348748E+00 -3.148726019E+01  1.011719731E+03  1.012221509E+03  1.078959322E-05  0.00000E+00  9.000E+00
      21     1     1     2   513   515  2.451777922E+00  1.995231469E+01 -2.733653909E+01  3.393217420E+01  4.170621797E-06  0.00000E+00  9.000E+00
      21     1     1     2   515   516  2.459570826E+00  1.153494550E+01 -3.420820586E+01  3.618433093E+01  4.744469820E-06  0.00000E+00  9.000E+00
</event>
<event>
      5  10001  2.02673E+08  8.53160E+00 -1.00000E+00  2.04020E-01
      21    -1     0     0   512   511  0.000000000E+00  0.000000000E+00  1.927794014E+01  1.927794014E+01  0.000000000E+00  0.00000E+00  9.000E+00
      21    -1     0     0   517   516  0.000000000E+00  0.000000000E+00 -1.046063886E+02  1.046063886E+02  0.000000000E+00  0.00000E+00  9.000E+00
      21     1     1     2   514   516 -3.145031580E+01 -8.486458630E+00 -5.883210459E+01  6.724848604E+01  1.168007728E-06  0.00000E+00  9.000E+00
      21     1     1     2   517   511  3.908141847E+01  4.671430307E+00 -2.754408321E+01  4.804015040E+01  3.371747881E-07  0.00000E+00  9.000E+00
      21     1     1     2   512   514 -7.631102665E+00  3.815028323E+00  1.047739316E+00  8.595692332E+00  1.705515853E-07  0.00000E+00  9.000E+00
</event>
<event>
      5  10001  2.02673E+08  1.76768E+01 -1.00000E+00  1.70875E-01
      -2    -1     0     0     0   515  0.000000000E+00  0.000000000E+00  1.216173233E+02  1.216173233E+02  0.000000000E+00  0.00000E+00  9.000E+00
      21    -1     0     0   511   512  0.000000000E+00  0.000000000E+00 -1.483076431E+02  1.483076431E+02  0.000000000E+00  0.00000E+00  9.000E+00
      -2     1     1     2     0   512  9.219848809E+01 -5.536752433E+01  4.936774664E+01  1.183359931E+02  3.300000131E-01  0.00000E+00  9.000E+00
      21     1     1     2   511   513 -8.614804680E+01  3.875845201E+01 -8.891668950E+01  1.297300322E+02  1.907348633E-06  0.00000E+00  9.000E+00
      21     1     1     2   513   515 -6.050441289E+00  1.660907232E+01  1.285862298E+01  2.185894115E+01  3.769728732E-07  0.00000E+00  9.000E+00
</event>
<event>
      5  10001  2.02673E+08  5.85945E+00 -1.00000E+00  2.27003E-01
       2    -1     0     0   511     0  0.000000000E+00  0.000000000E+00  9.784157745E+02  9.784157745E+02  0.000000000E+00  0.00000E+00  9.000E+00
      21    -1     0     0   513   512  0.000000000E+00  0.000000000E+00 -2.864756575E+02  2.864756575E+02  0.000000000E+00  0.00000E+00  9.000E+00
      21     1     1     2   511   514 -3.219754504E+01  4.128618952E+01  9.624924938E+02  9.639154693E+02  1.078959322E-05  0.00000E+00  9.000E+00
       2     1     1     2   513     0  3.805377631E+01 -4.109211854E+01 -3.650090243E+01  6.685115463E+01  3.300000131E-01  0.00000E+00  9.000E+00
      21     1     1     2   514   512 -5.856231267E+00 -1.940709773E-01 -2.340514743E+02  2.341248081E+02  6.031565972E-06  0.00000E+00  9.000E+00
</event>
<event>
      5  10001  2.02673E+08  7.01059E+00 -1.00000E+00  2.15390E-01
      21    -1     0     0   515   512  0.000000000E+00  0.000000000E+00  5.003639885E+00  5.003639885E+00  0.000000000E+00  0.00000E+00  9.000E+00
      21    -1     0     0   514   516  0.000000000E+00  0.000000000E+00 -2.576266192E+02  2.576266192E+02  0.000000000E+00  0.00000E+00  9.000E+00
      21     1     1     2   515   516 -6.219272099E+00 -3.203616728E+01 -7.256239278E+01  7.956315859E+01  1.348699152E-06  0.00000E+00  9.000E+00
      21     1     1     2   514   511  8.190966780E-01  1.225700234E+01 -5.683296951E+01  5.814543361E+01  0.000000000E+00  0.00000E+00  9.000E+00
      21     1     1     2   511   512  5.400175421E+00  1.977916494E+01 -1.232276170E+02  1.249216669E+02  0.000000000E+00  0.00000E+00  9.000E+00
</event>
<event>
      5  10001  2.02673E+08  1.20094E+01 -1.00000E+00  1.86939E-01
      -1    -1     0     0     0   512  0.000000000E+00  0.000000000E+00  1.573616550E+02  1.573616550E+02  0.000000000E+00  0.00000E+00  9.000E+00
      21    -1     0     0   512   513  0.000000000E+00  0.000000000E+00 -1.388089964E+01  1.388089964E+01  0.000000000E+00  0.00000E+00  9.000E+00
      -1     1     1     2     0   511  1.424057696E+01 -3.475327490E+01  1.138816893E+02  1.199155211E+02  3.300000131E-01  0.00000E+00  9.000E+00
      21     1     1     2   511   514 -1.751909298E+01  2.620889404E+01  2.773194646E+01  4.198673124E+01  3.371747881E-07  0.00000E+00  9.000E+00
      21     1     1     2   514   513  3.278516027E+00  8.544380858E+00  1.867119649E+00  9.340302317E+00  3.563839419E-07  0.00000E+00  9.000E+00
</event>
<event>
      5  10001  2.02673E+08  3.37671E+01 -1.00000E+00  1.49522E-01
       2    -1     0     0   514     0  0.000000000E+00  0.000000000E+00  2.139163181E+00  2.139163181E+00  0.000000000E+00  0.00000E+00  9.000E+00
       1    -1     0     0   512     0  0.000000000E+00  0.000000000E+00 -8.709771581E+02  8.709771581E+02  0.000000000E+00  0.00000E+00  9.000E+00
      21     1     1     2   514   511  1.434744019E+01  8.746347903E+00 -1.721368805E+02  1.729550614E+02  2.697398305E-06  0.00000E+00  9.000E+00
       2     1     1     2   512     0 -1.667343597E+01 -2.537530251E+01 -1.421979735E+02  1.454038583E+02  3.300000131E-01  0.00000E+00  9.000E+00
       1     1     1     2   511     0  2.325995783E+00  1.662895460E+01 -5.545031409E+02  5.547574016E+02  3.300000131E-01  0.00000E+00  9.000E+00
</event>
<event>
      5  10001  2.02673E+08  1.53362E+01 -1.00000E+00  1.76434E-01
       2    -1     0     0   511     0  0.000000000E+00  0.000000000E+00  6.889258974E+02  6.889258974E+02  0.000000000E+00  0.00000E+00  9.000E+00
      21    -1     0     0   513   512  0.000000000E+00  0.000000000E+00 -8.626766005E+01  8.626766005E+01  0.000000000E+00  0.00000E+00  9.000E+00
      21     1     1     2   511   515  2.821500453E+01 -1.672745907E+01  2.503395297E+02  2.524792556E+02  2.697398305E-06  0.00000E+00  9.000E+00
       2     1     1     2   513     0 -2.670706078E+01  3.198932668E+01  4.358242589E+02  4.378121488E+02  3.300000131E-01  0.00000E+00  9.000E+00
      21     1     1     2   515   512 -1.507943749E+00 -1.526186761E+01 -8.350555127E+01  8.490215303E+01  2.132480600E-06  0.00000E+00  9.000E+00
</event>
<event>
      5  10001  2.02673E+08  2.95308E+01 -1.00000E+00  1.53482E-01
      21    -1     0     0   514   513  0.000000000E+00  0.000000000E+00  9.452652940E+00  9.452652940E+00  0.000000000E+00  0.00000E+00  9.000E+00
       1    -1     0     0   515     0  0.000000000E+00  0.000000000E+00 -4.984215031E+02  4.984215031E+02  0.000000000E+00  0.00000E+00  9.000E+00
      -5     1     1     2     0   513 -1.384633867E+01  1.079089321E+01 -2.953145772E+01  3.468878014E+01  4.800000191E+00  0.00000E+00  9.000E+00
       1     1     1     2   514     0  5.059604587E+01 -4.986904949E+00 -3.977553948E+02  4.009916359E+02  3.300000131E-01  0.00000E+00  9.000E+00
       5     1     1     2   515     0 -3.674970720E+01 -5.803988261E+00 -6.168199766E+01  7.219374001E+01  4.800000191E+00  0.00000E+00  9.000E+00
</event>
<event>
      5  10001  2.02673E+08  5.58722E+01 -1.00000E+00  1.36351E-01
      21    -1     0     0   511   512  0.000000000E+00  0.000000000E+00  1.343357993E+02  1.343357993E+02  0.000000000E+00  0.00000E+00  9.000E+00
      21    -1     0     0   512   514  0.000000000E+00  0.000000000E+00 -9.118511718E+01  9.118511718E+01  0.000000000E+00  0.00000E+00  9.000E+00
      21     1     1     2   513   514 -2.073744739E+01  4.125050564E+01 -6.167236870E+01  7.703977545E+01  9.536743164E-07  0.00000E+00  9.000E+00
       3     1     1     2   511     0 -1.566882816E+01 -4.928042183E+01  9.767097421E+01  1.105167017E+02  5.000000000E-01  0.00000E+00  9.000E+00
      -3     1     1     2     0   513  3.640627554E+01  8.029916184E+00  7.152076591E+00  3.796443931E+01  5.000000000E-01  0.00000E+00  9.000E+00
</event>
<event>
      5  10001  2.02673E+08  1.05762E+01 -1.00000E+00  1.92929E-01
      21    -1     0     0   515   512  0.000000000E+00  0.000000000E+00  1.084515547E+01  1.084515547E+01  0.000000000E+00  0.00000E+00  9.000E+00
       2    -1     0     0   511     0  0.000000000E+00  0.000000000E+00 -2.465352958E+02  2.465352958E+02  0.000000000E+00  0.00000E+00  9.000E+00
      21     1     1     2   511   512 -3.228334348E+01  3.130886538E+01 -5.556427853E+01  7.148320339E+01  0.000000000E+00  0.00000E+00  9.000E+00
      21     1     1     2   515   514  1.797197821E+01 -1.144035395E+01 -7.590685487E+01  7.883986501E+01  0.000000000E+00  0.00000E+00  9.000E+00
       2     1     1     2   514     0  1.431136526E+01 -1.986851143E+01 -1.042190070E+02  1.070573829E+02  3.300000131E-01  0.00000E+00  9.000E+00
</event>
<event>
      5  10001  2.02673E+08  3.56505E+01 -1.00000E+00  1.47978E-01
      21    -1     0     0   513   512  0.000000000E+00  0.000000000E+00  1.629941397E+02  1.629941397E+02  0.000000000E+00  0.00000E+00  9.000E+00
      21    -1     0     0   511   516  0.000000000E+00  0.000000000E+00 -2.836662545E+01  2.836662545E+01  0.000000000E+00  0.00000E+00  9.000E+00
      21     1     1     2   513   516 -4.062408757E+01 -2.174946905E+01  1.160911498E+02  1.249020055E+02  1.907348633E-06  0.00000E+00  9.000E+00
      21     1     1     2   515   512  2.239501527E+01 -1.648875996E+00 -1.064365049E+01  2.485040839E+01  4.129530925E-07  0.00000E+00  9.000E+00
      21     1     1     2   511   515  1.822907229E+01  2.339834504E+01  2.918001485E+01  4.160835126E+01  4.768371582E-07  0.00000E+00  9.000E+00
</event>
<event>
      5  10001  2.02673E+08  8.26617E+00 -1.00000E+00  2.05764E-01
       2    -1     0     0   511     0  0.000000000E+00  0.000000000E+00  1.208935533E+03  1.208935533E+03  0.000000000E+00  0.00000E+00  9.000E+00
       3    -1     0     0   514     0  0.000000000E+00  0.000000000E+00 -4.095601967E+00  4.095601967E+00  0.000000000E+00  0.00000E+00  9.000E+00
      21     1     1     2   514   512 -5.391037880E+01  2.536568620E+01  7.297910994E+02  7.322190900E+02  0.000000000E+00  0.00000E+00  9.000E+00
       3     1     1     2   511     0  4.588426473E+01 -2.734191910E+01  2.514805465E+02  2.570907652E+02  5.000000000E-01  0.00000E+00  9.000E+00
       2     1     1     2   512     0  8.026114071E+00  1.976232899E+00  2.235682847E+02  2.237212793E+02  3.300000131E-01  0.00000E+00  9.000E+00
</event>
<event>
      5  10001  2.02673E+08  3.17256E+00 -1.00000E+00  2.89555E-01
      21    -1     0     0   514   515  0.000000000E+00  0.000000000E+00  1.368137024E+01  1.368137024E+01  0.000000000E+00  0.00000E+00  9.000E+00
       2    -1     0     0   511     0  0.000000000E+00  0.000000000E+00 -2.922875471E+02  2.922875471E+02  0.000000000E+00  0.00000E+00  9.000E+00
      21     1     1     2   511   515  9.430778839E+00  3.000938929E+01 -3.725251174E+01  4.875707811E+01  1.846782373E-06  0.00000E+00  9.000E+00
       2     1     1     2   513     0 -9.836652441E+00 -2.686292179E+01 -2.481066965E+02  2.497507118E+02  3.300000131E-01  0.00000E+00  9.000E+00
      21     1     1     2   514   513  4.058736017E-01 -3.146467498E+00  6.753031324E+00  7.461127472E+00  5.654593098E-07  0.00000E+00  9.000E+00
</event>
<event>
      5  10001  2.02673E+08  4.74925E+00 -1.00000E+00  2.46960E-01
      21    -1     0     0   512   513  0.000000000E+00  0.000000000E+00  3.712001627E+00  3.712001627E+00  0.000000000E+00  0.00000E+00  9.000E+00
       1    -1     0     0   514     0  0.000000000E+00  0.000000000E+00 -5.160953982E+02  5.160953982E+02  0.000000000E+00  0.00000E+00  9.000E+00
      -2     1     1     2     0   513 -2.872031653E+00  1.819241012E+01 -3.619524585E+01  4.061301607E+01  3.300000131E-01  0.00000E+00  9.000E+00
       1     1     1     2   512     0  1.773568819E+00 -3.011751111E+01 -4.408397515E+02  4.418710281E+02  3.300000131E-01  0.00000E+00  9.000E+00
       2     1     1     2   514     0  1.098462833E+00  1.192510099E+01 -3.534839916E+01  3.732335566E+01  3.300000131E-01  0.00000E+00  9.000E+00
</event>
<event>
      5  10001  2.02673E+08  1.36356E+01 -1.00000E+00  1.81327E-01
      21    -1     0     0   511   514  0.000000000E+00  0.000000000E+00  3.852141992E+02  3.852141992E+02  0.000000000E+00  0.00000E+00  9.000E+00
      21    -1     0     0   513   515  0.000000000E+00  0.000000000E+00 -1.276357064E+01  1.276357064E+01  0.000000000E+00  0.00000E+00  9.000E+00
      21     1     1     2   511   515 -1.404628193E+01 -2.593813441E+01  7.799568907E+00  3.051095095E+01  9.386548846E-07  0.00000E+00  9.000E+00
      21     1     1     2   513   512  1.279252647E+01  3.401997204E+01  3.214669480E+02  3.235150783E+02  0.000000000E+00  0.00000E+00  9.000E+00
      21     1     1     2   512   514  1.253755457E+00 -8.081837639E+00  4.318411161E+01  4.395174056E+01  6.743495762E-07  0.00000E+00  9.000E+00
</event>
<event>
      5  10001  2.02673E+08  1.07173E+01 -1.00000E+00  1.92286E-01
       1    -1     0     0   513     0  0.000000000E+00  0.000000000E+00  6.722078218E+02  6.722078218E+02  0.000000000E+00  0.00000E+00  9.000E+00
      21    -1     0     0   512   511  0.000000000E+00  0.000000000E+00 -6.829151796E+00  6.829151796E+00  0.000000000E+00  0.00000E+00  9.000E+00
      21     1     1     2   513   516  1.823932026E+01 -2.210411469E+01  3.058049263E+01  4.190979861E+01  1.617033478E-06  0.00000E+00  9.000E+00
       1     1     1     2   512     0 -1.136923099E+01  3.032968846E+01  5.958958356E+02  5.967755903E+02  3.300000131E-01  0.00000E+00  9.000E+00
      21     1     1     2   516   511 -6.870089266E+00 -8.225573771E+00  3.890234179E+01  4.035158469E+01  9.536743164E-07  0.00000E+00  9.000E+00
</event>
<event>
      5  10001  2.02673E+08  9.70051E+00 -1.00000E+00  1.97237E-01
      21    -1     0     0   512   514  0.000000000E+00  0.000000000E+00  1.443678011E+01  1.443678011E+01  0.000000000E+00  0.00000E+00  9.000E+00
      21    -1     0     0   514   511  0.000000000E+00  0.000000000E+00 -1.138362843E+02  1.138362843E+02  0.000000000E+00  0.00000E+00  9.000E+00
      -5     1     1     2     0   513 -2.129044122E+01  1.453539676E+01 -5.482187545E+01  6.077037664E+01  4.800000191E+00  0.00000E+00  9.000E+00
      21     1     1     2   513   511  2.911459481E+01 -2.004382528E+01 -4.445750273E+01  5.679686709E+01  0.000000000E+00  0.00000E+00  9.000E+00
       5     1     1     2   512     0 -7.824153590E+00  5.508428515E+00 -1.201260099E-01  1.070582067E+01  4.800000191E+00  0.00000E+00  9.000E+00
</event>
<event>
      5  10001  2.02673E+08  1.27673E+01 -1.00000E+00  1.84190E-01
      21    -1     0     0   515   511  0.000000000E+00  0.000000000E+00  1.554052993E+02  1.554052993E+02  0.000000000E+00  0.00000E+00  9.000E+00
      21    -1     0     0   514   516  0.000000000E+00  0.000000000E+00 -1.067949766E+02  1.067949766E+02  0.000000000E+00  0.00000E+00  9.000E+00
      21     1     1     2   515   516 -5.007889866E+00  3.215772597E+01 -8.472179773E+01  9.075781680E+01  1.348699152E-06  0.00000E+00  9.000E+00
      21     1     1     2   514   513 -6.917412248E+00 -3.671733929E+01 -1.375740888E-01  3.736351862E+01  2.722522079E-07  0.00000E+00  9.000E+00
      21     1     1     2   513   511  1.192530211E+01  4.559613318E+00  1.334696945E+02  1.340789404E+02  1.907348633E-06  0.00000E+00  9.000E+00
</event>
<event>
      5  10001  2.02673E+08  1.51240E+01 -1.00000E+00  1.77000E-01
      21    -1     0     0   512   511  0.000000000E+00  0.000000000E+00  3.845859857E+01  3.845859857E+01  0.000000000E+00  0.00000E+00  9.000E+00
       2    -1     0     0   513     0  0.000000000E+00  0.000000000E+00 -5.507307555E+02  5.507307555E+02  0.000000000E+00  0.00000E+00  9.000E+00
      21     1     1     2   514   511  1.270478356E+00  4.098878135E+01  2.274909886E+01  4.689579737E+01  3.090257978E-06  0.00000E+00  9.000E+00
       2     1     1     2   512     0 -1.076734467E+01 -3.458697105E+01 -5.271573577E+02  5.284005895E+02  3.300000131E-01  0.00000E+00  9.000E+00
      21     1     1     2   513   514  9.496866312E+00 -6.401810300E+00 -7.863898076E+00  1.389296721E+01  4.214684851E-07  0.00000E+00  9.000E+00
</event>
<event>
      5  10001  2.02673E+08  2.28773E+01 -1.00000E+00  1.61653E-01
      21    -1     0     0   515   512  0.000000000E+00  0.000000000E+00  5.237200296E+02  5.237200296E+02  0.000000000E+00  0.00000E+00  9.000E+00
      21    -1     0     0   513   515  0.000000000E+00  0.000000000E+00 -2.699228498E+01  2.699228498E+01  0.000000000E+00  0.00000E+00  9.000E+00
      21     1     1     2   513   514  3.491040713E+00 -3.073420043E+01 -1.285420749E+01  3.349640416E+01  8.760057960E-07  0.00000E+00  9.000E+00
      21     1     1     2   514   511  1.579963172E+01  4.303213974E+01  1.486051447E+02  1.555148946E+02  1.907348633E-06  0.00000E+00  9.000E+00
      21     1     1     2   511   512 -1.929067243E+01 -1.229793931E+01  3.609768074E+02  3.617010158E+02  7.629394531E-06  0.00000E+00  9.000E+00
</event>
<event>
      5  10001  2.02673E+08  1.80652E+01 -1.00000E+00  1.70056E-01
      21    -1     0     0   516   514  0.000000000E+00  0.000000000E+00  3.353001679E+02  3.353001679E+02  0.000000000E+00  0.00000E+00  9.000E+00
      -1    -1     0     0     0   512  0.000000000E+00  0.000000000E+00 -1.120092294E+02  1.120092294E+02  0.000000000E+00  0.00000E+00  9.000E+00
      21     1     1     2   516   512  2.013317470E+01 -8.079500408E+00  2.918830746E+02  2.926881486E+02  3.814697266E-06  0.00000E+00  9.000E+00
      21     1     1     2   513   514 -3.513384520E+01  1.814590670E+01  3.295748038E+01  5.147675710E+01  8.259061849E-07  0.00000E+00  9.000E+00
      -1     1     1     2     0   513  1.500067050E+01 -1.006640629E+01 -1.015496165E+02  1.031444916E+02  3.300000131E-01  0.00000E+00  9.000E+00
</event>
<event>
      5  10001  2.02673E+08  1.79219E+01 -1.00000E+00  1.70355E-01
      21    -1     0     0   515   513  0.000000000E+00  0.000000000E+00  2.521194468E+02  2.521194468E+02  0.000000000E+00  0.00000E+00  9.000E+00
      21    -1     0     0   512   511  0.000000000E+00  0.000000000E+00 -1.336865300E+01  1.336865300E+01  0.000000000E+00  0.00000E+00  9.000E+00
      -5     1     1     2     0   513  1.678286476E+01 -1.689044569E+01  6.610080738E+01  7.042235755E+01  4.800000191E+00  0.00000E+00  9.000E+00
      21     1     1     2   515   511 -3.458535669E+01  1.730820922E+01  1.723337578E+02  1.766200585E+02  3.303624740E-06  0.00000E+00  9.000E+00
       5     1     1     2   512     0  1.780249193E+01 -4.177635207E-01  3.162286263E-01  1.844568371E+01  4.800000191E+00  0.00000E+00  9.000E+00
</event>
<event>
      5  10001  2.02673E+08  2.22284E+01 -1.00000E+00  1.62631E-01
      21    -1     0     0   514   513  0.000000000E+00  0.000000000E+00  2.121737350E+00  2.121737350E+00  0.000000000E+00  0.00000E+00  9.000E+00
      21    -1     0     0   512   516  0.000000000E+00  0.000000000E+00 -6.566552813E+02  6.566552813E+02  0.000000000E+00  0.00000E+00  9.000E+00
      21     1     1     2   514   516  2.475267295E+01 -1.831482212E+01 -2.141170986E+02  2.163198082E+02  3.814697266E-06  0.00000E+00  9.000E+00
      21     1     1     2   511   513 -2.694205348E+01  4.128141280E+00 -2.442054413E+02  2.457218211E+02  2.697398305E-06  0.00000E+00  9.000E+00
      21     1     1     2   512   511  2.189380535E+00  1.418668084E+01 -1.962110041E+02  1.967353893E+02  0.000000000E+00  0.00000E+00  9.000E+00
</event>
<event>
      5  10001  2.02673E+08  4.73808E+01 -1.00000E+00  1.40393E-01
       2    -1     0     0   512     0  0.000000000E+00  0.000000000E+00  2.255104850E+02  2.255104850E+02  0.000000000E+00  0.00000E+00  9.000E+00
      21    -1     0     0   515   511  0.000000000E+00  0.000000000E+00 -1.612921959E+01  1.612921959E+01  0.000000000E+00  0.00000E+00  9.000E+00
      21     1     1     2   512   511 -4.157430356E+01  1.934489797E+01  1.053376154E+02  1.148854256E+02  1.348699152E-06  0.00000E+00  9.000E+00
       2     1     1     2   513     0  1.747474605E+01 -2.578724737E+01  1.556109827E+01  3.482248636E+01  3.300000131E-01  0.00000E+00  9.000E+00
      21     1     1     2   515   513  2.409955751E+01  6.442349400E+00  8.848255177E+01  9.193179268E+01  9.536743164E-07  0.00000E+00  9.000E+00
</event>
<event>
      5  10001  2.02673E+08  2.97403E+01 -1.00000E+00  1.53267E-01
       2    -1     0     0   511     0  0.000000000E+00  0.000000000E+00  1.656448507E+02  1.656448507E+02  0.000000000E+00  0.00000E+00  9.000E+00
      21    -1     0     0   514   513  0.000000000E+00  0.000000000E+00 -1.032437818E+01  1.032437818E+01  0.000000000E+00  0.00000E+00  9.000E+00
      21     1     1     2   511   513 -2.034512319E+01  3.067618462E+01  5.106519516E+01  6.294923746E+01  9.536743164E-07  0.00000E+00  9.000E+00
       2     1     1     2   512     0  4.398749997E+00 -8.656757639E+00  6.211836271E+01  6.287359017E+01  3.300000131E-01  0.00000E+00  9.000E+00
      21     1     1     2   514   512  1.594637320E+01 -2.201942698E+01  4.213691466E+01  5.014640126E+01  1.168007728E-06  0.00000E+00  9.000E+00
</event>
<event>
      5  10001  2.02673E+08  1.46954E+01 -1.00000E+00  1.78179E-01
      21    -1     0     0   514   512  0.000000000E+00  0.000000000E+00  4.764549275E+00  4.764549275E+00  0.000000000E+00  0.00000E+00  9.000E+00
       2    -1     0     0   515     0  0.000000000E+00  0.000000000E+00 -6.019142427E+02  6.019142427E+02  0.000000000E+00  0.00000E+00  9.000E+00
      21     1     1     2   515   512 -2.948325759E+01  9.680792039E+00 -5.240698337E+01  6.090543587E+01  2.611744678E-06  0.00000E+00  9.000E+00
       2     1     1     2   511     0  7.259146602E+00 -5.049531764E+00 -2.504845526E+02  2.506408047E+02  3.300000131E-01  0.00000E+00  9.000E+00
      21     1     1     2   514   511  2.222411098E+01 -4.631260275E+00 -2.942581574E+02  2.951325513E+02  3.814697266E-06  0.00000E+00  9.000E+00
</event>
<event>
      5  10001  2.02673E+08  5.05871E+01 -1.00000E+00  1.38758E-01
      -2    -1     0     0     0   513  0.000000000E+00  0.000000000E+00  2.557333039E+01  2.557333039E+01  0.000000000E+00  0.00000E+00  9.000E+00
      21    -1     0     0   514   511  0.000000000E+00  0.000000000E+00 -4.023458326E+01  4.023458326E+01  0.000000000E+00  0.00000E+00  9.000E+00
      21     1     1     2   512   511 -1.000764449E+00  1.055832046E+01 -4.314687757E+00  1.144972449E+01  1.685873940E-07  0.00000E+00  9.000E+00
      21     1     1     2   514   513 -2.447266278E+01  2.586240083E+00 -6.342508533E+00  2.541313196E+01  1.192092896E-07  0.00000E+00  9.000E+00
      -2     1     1     2     0   512  2.547342723E+01 -1.314456054E+01 -4.004056580E+00  2.894505719E+01  3.300000131E-01  0.00000E+00  9.000E+00
</event>
<event>
      5  10001  2.02673E+08  3.00984E+01 -1.00000E+00  1.52906E-01
      21    -1     0     0   515   511  0.000000000E+00  0.000000000E+00  1.743360375E+01  1.743360375E+01  0.000000000E+00  0.00000E+00  9.000E+00
      21    -1     0     0   516   515  0.000000000E+00  0.000000000E+00 -1.169091980E+02  1.169091980E+02  0.000000000E+00  0.00000E+00  9.000E+00
      21     1     1     2   516   512  2.053765153E+01 -2.518000884E+01 -6.247461676E+01  7.041949811E+01  0.000000000E+00  0.00000E+00  9.000E+00
      21     1     1     2   513   511 -5.944745755E+00  2.143624188E+01  1.782411842E+00  2.231657366E+01  5.170509688E-07  0.00000E+00  9.000E+00
      21     1     1     2   512   513 -1.459290578E+01  3.743766962E+00 -3.878338933E+01  4.160672996E+01  4.768371582E-07  0.00000E+00  9.000E+00
</event>
<event>
      5  10001  2.02673E+08  5.44700E+01 -1.00000E+00  1.36959E-01
      21    -1     0     0   514   513  0.000000000E+00  0.000000000E+00  8.457969908E+01  8.457969908E+01  0.000000000E+00  0.00000E+00  9.000E+00
      21    -1     0     0   512   517  0.000000000E+00  0.000000000E+00 -2.653270752E+01  2.653270752E+01  0.000000000E+00  0.00000E+00  9.000E+00
      21     1     1     2   514   517  3.351643678E+01 -1.010457363E+00  3.623111569E+01  4.936665172E+01  6.743495762E-07  0.00000E+00  9.000E+00
      21     1     1     2   511   513 -1.793218775E+01 -1.473346357E+00  3.617963917E+01  4.040668753E+01  0.000000000E+00  0.00000E+00  9.000E+00
      21     1     1     2   512   511 -1.558424903E+01  2.483803720E+00 -1.436376331E+01  2.133906734E+01  7.348554138E-07  0.00000E+00  9.000E+00
</event>
<event>
      5  10001  2.02673E+08  1.18586E+01 -1.00000E+00  1.87518E-01
      21    -1     0     0   515   511  0.000000000E+00  0.000000000E+00  2.006983303E+02  2.006983303E+02  0.000000000E+00  0.00000E+00  9.000E+00
      21    -1     0     0   513   516  0.000000000E+00  0.000000000E+00 -1.278576590E+01  1.278576590E+01  0.000000000E+00  0.00000E+00  9.000E+00
      21     1     1     2   515   516  3.659541085E+01  1.764586459E+01  7.548119899E+01  8.572054616E+01  2.132480600E-06  0.00000E+00  9.000E+00
      21     1     1     2   512   511 -2.821174601E+01 -2.603276595E+01  1.087813858E+02  1.153559596E+02  1.907348633E-06  0.00000E+00  9.000E+00
      21     1     1     2   513   512 -8.383664839E+00  8.386901355E+00  3.649979645E+00  1.240759049E+01  2.346637211E-07  0.00000E+00  9.000E+00
</event>
<event>
      5  10001  2.02673E+08  4.59601E+01 -1.00000E+00  1.41166E-01
       2    -1     0     0   514     0  0.000000000E+00  0.000000000E+00  3.869654043E+02  3.869654043E+02  0.000000000E+00  0.00000E+00  9.000E+00
       2    -1     0     0   511     0  0.000000000E+00  0.000000000E+00 -5.037876547E+02  5.037876547E+02  0.000000000E+00  0.00000E+00  9.000E+00
       2     1     1     2   513     0 -4.483078612E+00  5.526532033E+01  3.802351469E+02  3.842567234E+02  3.300000131E-01  0.00000E+00  9.000E+00
       2     1     1     2   514     0  3.983789840E+01 -2.589932510E+01 -3.228538541E+02  3.263319678E+02  3.300000131E-01  0.00000E+00  9.000E+00
      21     1     1     2   511   513 -3.535481979E+01 -2.936599523E+01 -1.742035432E+02  1.801643678E+02  3.303624740E-06  0.00000E+00  9.000E+00
</event>
<event>
      5  10001  2.02673E+08  1.43503E+01 -1.00000E+00  1.79166E-01
       2    -1     0     0   515     0  0.000000000E+00  0.000000000E+00  1.069280880E+03  1.069280880E+03  0.000000000E+00  0.00000E+00  9.000E+00
      21    -1     0     0   514   513  0.000000000E+00  0.000000000E+00 -1.063801818E+01  1.063801818E+01  0.000000000E+00  0.00000E+00  9.000E+00
      21     1     1     2   514   512  3.186935119E+01  6.945580297E+00  1.830149401E+01  3.740108707E+01  1.168007728E-06  0.00000E+00  9.000E+00
       2     1     1     2   512     0 -4.174047285E+01 -1.736141898E+01  9.471254244E+02  9.482037568E+02  3.300000131E-01  0.00000E+00  9.000E+00
      21     1     1     2   515   513  9.871121661E+00  1.041583868E+01  9.321594322E+01  9.431405414E+01  0.000000000E+00  0.00000E+00  9.000E+00
</event>
<event>
      5  10001  2.02673E+08  1.29506E+01 -1.00000E+00  1.83562E-01
      21    -1     0     0   511   514  0.000000000E+00  0.000000000E+00  9.144558402E+01  9.144558402E+01  0.000000000E+00  0.00000E+00  9.000E+00
      21    -1     0     0   516   511  0.000000000E+00  0.000000000E+00 -1.206397240E+01  1.206397240E+01  0.000000000E+00  0.00000E+00  9.000E+00
      21     1     1     2   513   514  2.025197674E+01  2.251399671E+01  3.137713650E+01  4.360673463E+01  5.840038640E-07  0.00000E+00  9.000E+00
      21     1     1     2   516   512 -2.008186916E+01 -1.380628494E+01  2.333240672E+01  3.373864515E+01  4.768371582E-07  0.00000E+00  9.000E+00
      21     1     1     2   512   513 -1.701075767E-01 -8.707711769E+00  2.467206839E+01  2.616417665E+01  3.371747881E-07  0.00000E+00  9.000E+00
</event>
<event>
      5  10001  2.02673E+08  5.48811E+00 -1.00000E+00  2.31577E-01
       2    -1     0     0   511     0  0.000000000E+00  0.000000000E+00  7.372096903E+02  7.372096903E+02  0.000000000E+00  0.00000E+00  9.000E+00
      21    -1     0     0   515   511  0.000000000E+00  0.000000000E+00 -1.810554810E+00  1.810554810E+00  0.000000000E+00  0.00000E+00  9.000E+00
      21     1     1     2   515   512 -2.265401809E+01 -2.207009786E+01  1.859142161E+02  1.885852314E+02  0.000000000E+00  0.00000E+00  9.000E+00
       2     1     1     2   514     0  1.254412121E+01  1.203013840E+01  3.573163766E+02  3.577389845E+02  3.300000131E-01  0.00000E+00  9.000E+00
      21     1     1     2   512   514  1.010989688E+01  1.003995946E+01  1.921685429E+02  1.926960292E+02  0.000000000E+00  0.00000E+00  9.000E+00
</event>
<event>
      5  10001  2.02673E+08  1.88516E+01 -1.00000E+00  1.68474E-01
      21    -1     0     0   513   515  0.000000000E+00  0.000000000E+00  4.206640483E+01  4.206640483E+01  0.000000000E+00  0.00000E+00  9.000E+00
      -2    -1     0     0     0   513  0.000000000E+00  0.000000000E+00 -1.790787731E+02  1.790787731E+02  0.000000000E+00  0.00000E+00  9.000E+00
      21     1     1     2   514   515  6.309565414E+00  4.047562208E+01  2.423714376E+01  4.759753918E+01  8.920806376E-07  0.00000E+00  9.000E+00
      21     1     1     2   516   514  3.490888848E+00 -2.437189410E+01 -2.197021951E+01  3.299797073E+01  8.259061849E-07  0.00000E+00  9.000E+00
      -2     1     1     2     0   516 -9.800454262E+00 -1.610372799E+01 -1.392792925E+02  1.405496680E+02  3.300000131E-01  0.00000E+00  9.000E+00
</event>
<event>
      5  10001  2.02673E+08  2.36904E+01 -1.00000E+00  1.60483E-01
      21    -1     0     0   511   516  0.000000000E+00  0.000000000E+00  4.370842637E+01  4.370842637E+01  0.000000000E+00  0.00000E+00  9.000E+00
      21    -1     0     0   515   512  0.000000000E+00  0.000000000E+00 -4.287205853E+01  4.287205853E+01  0.000000000E+00  0.00000E+00  9.000E+00
      21     1     1     2   511   512 -7.205095057E+00 -2.714821432E+01  2.175618888E+01  3.552844903E+01  6.743495762E-07  0.00000E+00  9.000E+00
      21     1     1     2   515   513  1.808520782E+01  1.814387788E+01 -2.555822520E+01  3.618698553E+01  3.371747881E-07  0.00000E+00  9.000E+00
      21     1     1     2   513   516 -1.088011276E+01  9.004336440E+00  4.638404156E+00  1.486505034E+01  3.153981341E-07  0.00000E+00  9.000E+00
</event>
<event>
      5  10001  2.02673E+08  8.87517E+00 -1.00000E+00  2.01883E-01
      21    -1     0     0   514   513  0.000000000E+00  0.000000000E+00  6.356632563E+01  6.356632563E+01  0.000000000E+00  0.00000E+00  9.000E+00
      21    -1     0     0   516   514  0.000000000E+00  0.000000000E+00 -3.955779986E+02  3.955779986E+02  0.000000000E+00  0.00000E+00  9.000E+00
      21     1     1     2   515   513 -1.010072757E+01  2.831339308E+01  5.839337602E+01  6.567693118E+01  2.023048729E-06  0.00000E+00  9.000E+00
      21     1     1     2   511   515  1.059176032E+01 -3.476083938E+01 -3.750512629E+02  3.768075784E+02  5.394796609E-06  0.00000E+00  9.000E+00
      21     1     1     2   516   511 -4.910327495E-01  6.447446296E+00 -1.535378618E+01  1.665981473E+01  1.685873940E-07  0.00000E+00  9.000E+00
</event>
<event>
      5  10001  2.02673E+08  1.22021E+01 -1.00000E+00  1.86216E-01
      21    -1     0     0   512   511  0.000000000E+00  0.000000000E+00  2.854404503E+02  2.854404503E+02  0.000000000E+00  0.00000E+00  9.000E+00
      21    -1     0     0   513   517  0.000000000E+00  0.000000000E+00 -7.530297168E+00  7.530297168E+00  0.000000000E+00  0.00000E+00  9.000E+00
      21     1     1     2   512   517 -1.978818936E+01  2.564166196E+01  3.706798642E+01  4.922502295E+01  4.768371582E-07  0.00000E+00  9.000E+00
      21     1     1     2   514   511  1.375026106E+01 -1.296516202E+01  1.919267150E+02  1.928549430E+02  3.814697266E-06  0.00000E+00  9.000E+00
      21     1     1     2   513   514  6.037928302E+00 -1.267649994E+01  4.891545171E+01  5.089078153E+01  6.743495762E-07  0.00000E+00  9.000E+00
</event>
<event>
      5  10001  2.02673E+08  1.29042E+01 -1.00000E+00  1.83720E-01
       2    -1     0     0   513     0  0.000000000E+00  0.000000000E+00  3.751590345E+01  3.751590345E+01  0.000000000E+00  0.00000E+00  9.000E+00
       1    -1     0     0   511     0  0.000000000E+00  0.000000000E+00 -7.708447562E+02  7.708447562E+02  0.000000000E+00  0.00000E+00  9.000E+00
       1     1     1     2   513     0  2.881920431E+01 -1.639400010E+01 -7.413106487E+02  7.420518153E+02  3.300000131E-01  0.00000E+00  9.000E+00
       2     1     1     2   512     0 -2.961481933E+01  7.994758623E+00  2.989091928E+01  4.283140956E+01  3.300000131E-01  0.00000E+00  9.000E+00
      21     1     1     2   511   512  7.956150218E-01  8.399241477E+00 -2.190912329E+01  2.347743478E+01  3.371747881E-07  0.00000E+00  9.000E+00
</event>
<event>
      5  10001  2.02673E+08  4.97931E+00 -1.00000E+00  2.42812E-01
      -2    -1     0     0     0   511  0.000000000E+00  0.000000000E+00  3.882121990E+00  3.882121990E+00  0.000000000E+00  0.00000E+00  9.000E+00
       2    -1     0     0   511     0  0.000000000E+00  0.000000000E+00 -3.547800017E+02  3.547800017E+02  0.000000000E+00  0.00000E+00  9.000E+00
      -2     1     1     2     0   513 -3.470643076E+01 -6.708737968E+00 -2.237934413E+02  2.265682166E+02  3.300000131E-01  0.00000E+00  9.000E+00
      21     1     1     2   513   514  2.123011023E+01  5.125844473E+00 -6.675206566E+01  7.023410946E+01  1.651812370E-06  0.00000E+00  9.000E+00
       2     1     1     2   514     0  1.347632053E+01  1.582893494E+00 -6.035237273E+01  6.185979762E+01  3.300000131E-01  0.00000E+00  9.000E+00
</event>
<event>
      5  10001  2.02673E+08  5.75718E+00 -1.00000E+00  2.28214E-01
      21    -1     0     0   514   511  0.000000000E+00  0.000000000E+00  1.013928495E+02  1.013928495E+02  0.000000000E+00  0.00000E+00  9.000E+00
      21    -1     0     0   513   514  0.000000000E+00  0.000000000E+00 -6.342989810E+01  6.342989810E+01  0.000000000E+00  0.00000E+00  9.000E+00
      21     1     1     2   513   512 -3.051938964E+01 -2.064271936E+01 -5.325700393E+01  6.476004536E+01  9.536743164E-07  0.00000E+00  9.000E+00
       2     1     1     2   512     0  2.587923694E+01  1.723494346E+01  5.330317485E+01  6.170993056E+01  3.300000131E-01  0.00000E+00  9.000E+00
      -2     1     1     2     0   511  4.640152704E+00  3.407775895E+00  3.791678045E+01  3.835277165E+01  3.300000131E-01  0.00000E+00  9.000E+00
</event>
<event>
      5  10001  2.02673E+08  1.94749E+01 -1.00000E+00  1.67286E-01
      21    -1     0     0   515   513  0.000000000E+00  0.000000000E+00  1.149717727E+02  1.149717727E+02  0.000000000E+00  0.00000E+00  9.000E+00
      21    -1     0     0   511   515  0.000000000E+00  0.000000000E+00 -1.717299457E+02  1.717299457E+02  0.000000000E+00  0.00000E+00  9.000E+00
      21     1     1     2   516   513  1.258319293E+00  3.111587654E+01  1.063092991E+02  1.107765689E+02  2.336015456E-06  0.00000E+00  9.000E+00
      -1     1     1     2     0   516 -1.381908111E+01 -3.694913306E+01 -1.548976480E+02  1.598424089E+02  3.300000131E-01  0.00000E+00  9.000E+00
       1     1     1     2   511     0  1.256076182E+01  5.833256522E+00 -8.169824136E+00  1.608274061E+01  3.300000131E-01  0.00000E+00  9.000E+00
</event>
<event>
      5  10001  2.02673E+08  1.01015E+01 -1.00000E+00  1.95194E-01
      21    -1     0     0   511   512  0.000000000E+00  0.000000000E+00  4.869427361E+01  4.869427361E+01  0.000000000E+00  0.00000E+00  9.000E+00
       5    -1     0     0   514     0  0.000000000E+00  0.000000000E+00 -6.180393848E+01  6.180393848E+01  0.000000000E+00  0.00000E+00  9.000E+00
      21     1     1     2   513   512 -8.307704336E+00 -4.308472734E+01  5.550216651E+00  4.422800681E+01  1.130918620E-06  0.00000E+00  9.000E+00
       5     1     1     2   511     0  1.742792689E+01  4.737873347E+01 -7.550726739E+00  5.126919638E+01  4.800000191E+00  0.00000E+00  9.000E+00
      21     1     1     2   514   513 -9.120222555E+00 -4.294006128E+00 -1.110915478E+01  1.500100890E+01  3.153981341E-07  0.00000E+00  9.000E+00
</event>
<event>
      5  10001  2.02673E+08  5.99707E+01 -1.00000E+00  1.34688E-01
      21    -1     0     0   515   514  0.000000000E+00  0.000000000E+00  1.904654064E+01  1.904654064E+01  0.000000000E+00  0.00000E+00  9.000E+00
      21    -1     0     0   512   513  0.000000000E+00  0.000000000E+00 -1.439233186E+02  1.439233186E+02  0.000000000E+00  0.00000E+00  9.000E+00
      21     1     1     2   515   513 -1.932967582E+01  2.261963517E+01 -9.202028301E+01  9.671099600E+01  1.907348633E-06  0.00000E+00  9.000E+00
      21     1     1     2   511   514  1.295881841E+01  1.360353481E+01 -3.300666427E+00  1.907567909E+01  3.885747436E-07  0.00000E+00  9.000E+00
      21     1     1     2   512   511  6.370857409E+00 -3.622316998E+01 -2.955582854E+01  4.718318416E+01  0.000000000E+00  0.00000E+00  9.000E+00
</event>
<event>
      5  10001  2.02673E+08  1.05066E+01 -1.00000E+00  1.93251E-01
      21    -1     0     0   516   511  0.000000000E+00  0.000000000E+00  7.948375954E+01  7.948375954E+01  0.000000000E+00  0.00000E+00  9.000E+00
      21    -1     0     0   512   517  0.000000000E+00  0.000000000E+00 -2.206243626E+01  2.206243626E+01  0.000000000E+00  0.00000E+00  9.000E+00
      21     1     1     2   516   517 -1.740681497E+01 -2.596388163E+01 -4.394358406E+00  3.156629124E+01  7.127678837E-07  0.00000E+00  9.000E+00
      -2     1     1     2     0   511  8.620563227E+00  8.504467009E+00  3.305356126E+01  3.520350666E+01  3.300000131E-01  0.00000E+00  9.000E+00
       2     1     1     2   512     0  8.786251746E+00  1.745941463E+01  2.876212042E+01  3.477639789E+01  3.300000131E-01  0.00000E+00  9.000E+00
</event>
<event>
      5  10001  2.02673E+08  4.08007E+00 -1.00000E+00  2.61352E-01
      21    -1     0     0   512   511  0.000000000E+00  0.000000000E+00  2.246092623E+01  2.246092623E+01  0.000000000E+00  0.00000E+00  9.000E+00
       1    -1     0     0   513     0  0.000000000E+00  0.000000000E+00 -8.137504568E+02  8.137504568E+02  0.000000000E+00  0.00000E+00  9.000E+00
      21     1     1     2   513   514 -2.556525415E+01 -1.467594823E+01  1.059968685E+01  3.132601216E+01  1.327458468E-06  0.00000E+00  9.000E+00
       1     1     1     2   512     0  2.545480833E+01  1.910502815E+01 -7.989159315E+02  7.995497007E+02  3.300000131E-01  0.00000E+00  9.000E+00
      21     1     1     2   514   511  1.104458192E-01 -4.429079921E+00 -2.973285923E+00  5.335670193E+00  7.300048300E-08  0.00000E+00  9.000E+00
</event>
<event>
      5  10001  2.02673E+08  8.47118E+00 -1.00000E+00  2.04409E-01
       2    -1     0     0   514     0  0.000000000E+00  0.000000000E+00  4.785627078E+00  4.785627078E+00  0.000000000E+00  0.00000E+00  9.000E+00
       1    -1     0     0   511     0  0.000000000E+00  0.000000000E+00 -7.825475364E+02  7.825475364E+02  0.000000000E+00  0.00000E+00  9.000E+00
       1     1     1     2   512     0 -8.990918314E+00  1.835106130E+01 -5.024553229E+02  5.028708169E+02  3.300000131E-01  0.00000E+00  9.000E+00
       2     1     1     2   511     0  2.093201450E+01 -2.578733574E+01 -5.906515033E+01  6.776383106E+01  3.300000131E-01  0.00000E+00  9.000E+00
      21     1     1     2   514   512 -1.194109618E+01  7.436274431E+00 -2.162414361E+02  2.166985156E+02  0.000000000E+00  0.00000E+00  9.000E+00
</event>
<event>
      5  10001  2.02673E+08  2.12850E+01 -1.00000E+00  1.64128E-01
      21    -1     0     0   513   516  0.000000000E+00  0.000000000E+00  4.301796177E+01  4.301796177E+01  0.000000000E+00  0.00000E+00  9.000E+00
      21    -1     0     0   515   513  0.000000000E+00  0.000000000E+00 -9.669817325E+01  9.669817325E+01  0.000000000E+00  0.00000E+00  9.000E+00
      21     1     1     2   511   512 -2.326525670E+01 -3.673956210E+01  1.179871229E+01  4.505859745E+01  3.769728732E-07  0.00000E+00  9.000E+00
      21     1     1     2   515   511  1.351711256E+01  1.781797078E+01 -6.948780095E+01  7.299826639E+01  1.651812370E-06  0.00000E+00  9.000E+00
      21     1     1     2   512   516  9.748144132E+00  1.892159131E+01  4.008877175E+00  2.165927118E+01  1.576990671E-07  0.00000E+00  9.000E+00
</event>
<event>
      5  10001  2.02673E+08  3.90600E+01 -1.00000E+00  1.45452E-01
      -1    -1     0     0     0   514  0.000000000E+00  0.000000000E+00  1.315858930E+02  1.315858930E+02  0.000000000E+00  0.00000E+00  9.000E+00
      21    -1     0     0   511   513  0.000000000E+00  0.000000000E+00 -2.005652226E+01  2.005652226E+01  0.000000000E+00  0.00000E+00  9.000E+00
      -1     1     1     2     0   515  6.640522184E+00  1.139716564E+01  9.651883278E+01  9.741655866E+01  3.300000131E-01  0.00000E+00  9.000E+00
      21     1     1     2   511   514 -2.665689568E+01 -1.651451008E+01  7.495009805E+00  3.224118953E+01  1.000932194E-06  0.00000E+00  9.000E+00
      21     1     1     2   515   513  2.001637350E+01  5.117344437E+00  7.515528147E+00  2.198466705E+01  6.307962682E-07  0.00000E+00  9.000E+00
</event>
<event>
      5  10001  2.02673E+08  6.02547E+00 -1.00000E+00  2.25108E-01
      -4    -1     0     0     0   512  0.000000000E+00  0.000000000E+00  1.028486119E+02  1.028486119E+02  0.000000000E+00  0.00000E+00  9.000E+00
      21    -1     0     0   514   513  0.000000000E+00  0.000000000E+00 -4.336640900E+01  4.336640900E+01  0.000000000E+00  0.00000E+00  9.000E+00
      -4     1     1     2     0   513 -2.605759069E+01  3.060031759E+01  8.559939443E+01  9.457739580E+01  1.500000000E+00  0.00000E+00  9.000E+00
      21     1     1     2   514   511  2.656507730E+01 -2.463827781E+01 -2.751213372E+01  4.549357721E+01  1.118282261E-06  0.00000E+00  9.000E+00
      21     1     1     2   511   512 -5.074866029E-01 -5.962039774E+00  1.394942189E+00  6.144047903E+00  9.771344847E-08  0.00000E+00  9.000E+00
</event>
<event>
      5  10001  2.02673E+08  1.14888E+01 -1.00000E+00  1.88984E-01
      21    -1     0     0   511   512  0.000000000E+00  0.000000000E+00  5.269664334E+01  5.269664334E+01  0.000000000E+00  0.00000E+00  9.000E+00
      -1    -1     0     0     0   515  0.000000000E+00  0.000000000E+00 -2.698564337E+02  2.698564337E+02  0.000000000E+00  0.00000E+00  9.000E+00
      -1     1     1     2     0   512  7.543289242E+01  2.165866078E+01 -2.298645953E+02  2.428931039E+02  3.300000131E-01  0.00000E+00  9.000E+00
      21     1     1     2   511   513 -1.171988576E+01 -1.751933597E+00  2.826422006E+00  1.218251431E+01  4.539354507E-07  0.00000E+00  9.000E+00
      21     1     1     2   513   515 -6.371300665E+01 -1.990672718E+01  9.878382920E+00  6.747745885E+01  2.360223517E-06  0.00000E+00  9.000E+00
</event>
<event>
      5  10001  2.02673E+08  2.40951E+01 -1.00000E+00  1.59921E-01
      21    -1     0     0   514   515  0.000000000E+00  0.000000000E+00  5.392931329E+02  5.392931329E+02  0.000000000E+00  0.00000E+00  9.000E+00
      21    -1     0     0   512   516  0.000000000E+00  0.000000000E+00 -6.121995303E+00  6.121995303E+00  0.000000000E+00  0.00000E+00  9.000E+00
      21     1     1     2   514   516  2.028156315E+01  1.849682854E+01  4.222382351E+02  4.231295330E+02  0.000000000E+00  0.00000E+00  9.000E+00
      21     1     1     2   511   515 -2.044335499E+01 -3.893177597E+00  1.603859227E+01  2.627401829E+01  1.261592536E-06  0.00000E+00  9.000E+00
      21     1     1     2   512   511  1.617918492E-01 -1.460365095E+01  9.489431017E+01  9.601157691E+01  1.348699152E-06  0.00000E+00  9.000E+00
</event>
<event>
      5  10001  2.02673E+08  1.35247E+01 -1.00000E+00  1.81677E-01
      21    -1     0     0   513   511  0.000000000E+00  0.000000000E+00  5.910033367E+01  5.910033367E+01  0.000000000E+00  0.00000E+00  9.000E+00
      21    -1     0     0   512   517  0.000000000E+00  0.000000000E+00 -1.062232216E+02  1.062232216E+02  0.000000000E+00  0.00000E+00  9.000E+00
      21     1     1     2   513   517 -3.478298591E+01 -1.353725060E+01  4.624977467E+01  5.943193519E+01  9.536743164E-07  0.00000E+00  9.000E+00
      -3     1     1     2     0   511  2.469248452E+01  1.919638371E+01 -8.746827366E+01  9.289331966E+01  5.000000000E-01  0.00000E+00  9.000E+00
       3     1     1     2   512     0  1.009050138E+01 -5.659133108E+00 -5.904388975E+00  1.299830046E+01  5.000000000E-01  0.00000E+00  9.000E+00
</event>
<event>
      5  10001  2.02673E+08  7.51453E+01 -1.00000E+00  1.29654E-01
      -1    -1     0     0     0   514  0.000000000E+00  0.000000000E+00  7.002346076E+01  7.002346076E+01  0.000000000E+00  0.00000E+00  9.000E+00
      21    -1     0     0   511   513  0.000000000E+00  0.000000000E+00 -3.251498802E+01  3.251498802E+01  0.000000000E+00  0.00000E+00  9.000E+00
      21     1     1     2   515   513  1.654685561E+01 -1.845967931E+01 -2.113816942E+01  3.257883358E+01  7.152557373E-07  0.00000E+00  9.000E+00
      21     1     1     2   511   514  8.209513698E+00  7.095507783E+00  1.511578137E+01  1.860723495E+01  7.539457465E-07  0.00000E+00  9.000E+00
      -1     1     1     2     0   515 -2.475636931E+01  1.136417153E+01  4.353086079E+01  5.135238024E+01  3.300000131E-01  0.00000E+00  9.000E+00
</event>
<event>
      5  10001  2.02673E+08  1.73438E+01 -1.00000E+00  1.71598E-01
      21    -1     0     0   512   511  0.000000000E+00  0.000000000E+00  2.800575073E+02  2.800575073E+02  0.000000000E+00  0.00000E+00  9.000E+00
      21    -1     0     0   516   512  0.000000000E+00  0.000000000E+00 -6.375896253E+00  6.375896253E+00  0.000000000E+00  0.00000E+00  9.000E+00
      21     1     1     2   516   515 -2.762835447E+01  4.705541683E+00  3.474569538E+01  4.464002061E+01  1.261592536E-06  0.00000E+00  9.000E+00
      21     1     1     2   515   513  2.615879906E+01  4.581606177E+00  1.471623863E+02  1.495394323E+02  3.303624740E-06  0.00000E+00  9.000E+00
      21     1     1     2   513   511  1.469555401E+00 -9.287147860E+00  9.177352936E+01  9.225395059E+01  0.000000000E+00  0.00000E+00  9.000E+00
</event>
<event>
      5  10001  2.02673E+08  1.40909E+01 -1.00000E+00  1.79931E-01
      21    -1     0     0   514   515  0.000000000E+00  0.000000000E+00  3.070398410E+02  3.070398410E+02  0.000000000E+00  0.00000E+00  9.000E+00
      21    -1     0     0   516   512  0.000000000E+00  0.000000000E+00 -1.660640449E+02  1.660640449E+02  0.000000000E+00  0.00000E+00  9.000E+00
      21     1     1     2   514   511 -2.220136811E+01  1.149617096E+01  1.682222376E+02  1.700699383E+02  4.672030912E-06  0.00000E+00  9.000E+00
      21     1     1     2   516   515  3.629042737E+01 -1.127110255E+01  1.349644898E+02  1.402121477E+02  0.000000000E+00  0.00000E+00  9.000E+00
      21     1     1     2   511   512 -1.408905926E+01 -2.250684125E-01 -1.622109313E+02  1.628217998E+02  1.907348633E-06  0.00000E+00  9.000E+00
</event>
<event>
      5  10001  2.02673E+08  1.14907E+01 -1.00000E+00  1.88976E-01
       2    -1     0     0   511     0  0.000000000E+00  0.000000000E+00  3.480695536E+02  3.480695536E+02  0.000000000E+00  0.00000E+00  9.000E+00
      21    -1     0     0   513   514  0.000000000E+00  0.000000000E+00 -1.103080262E+02  1.103080262E+02  0.000000000E+00  0.00000E+00  9.000E+00
      21     1     1     2   511   512  7.701306903E+00 -4.388116028E+01 -7.248101461E+01  8.507857448E+01  1.907348633E-06  0.00000E+00  9.000E+00
       2     1     1     2   513     0 -3.788740315E+00  3.307707120E+01  3.398826258E+02  3.415095246E+02  3.300000131E-01  0.00000E+00  9.000E+00
      21     1     1     2   512   514 -3.912566589E+00  1.080408908E+01 -2.964008377E+01  3.178948071E+01  7.539457465E-07  0.00000E+00  9.000E+00
</event>
<event>
      5  10001  2.02673E+08  2.20576E+01 -1.00000E+00  1.62895E-01
      21    -1     0     0   515   513  0.000000000E+00  0.000000000E+00  2.282711046E+01  2.282711046E+01  0.000000000E+00  0.00000E+00  9.000E+00
      21    -1     0     0   512   511  0.000000000E+00  0.000000000E+00 -3.701927633E+02  3.701927633E+02  0.000000000E+00  0.00000E+00  9.000E+00
      21     1     1     2   515   516  1.019561256E+01  3.019193326E+01 -7.241323900E+01  7.911498298E+01  1.348699152E-06  0.00000E+00  9.000E+00
      21     1     1     2   512   513 -3.067494826E+01 -2.199830182E+01  3.212348658E-01  3.774891953E+01  6.294969047E-07  0.00000E+00  9.000E+00
      21     1     1     2   516   511  2.047933570E+01 -8.193631440E+00 -2.752736487E+02  2.761559712E+02  3.814697266E-06  0.00000E+00  9.000E+00
</event>
<event>
      5  10001  2.02673E+08  1.92475E+01 -1.00000E+00  1.67713E-01
      21    -1     0     0   514   511  0.000000000E+00  0.000000000E+00  6.519026322E+01  6.519026322E+01  0.000000000E+00  0.00000E+00  9.000E+00
      21    -1     0     0   516   517  0.000000000E+00  0.000000000E+00 -4.813856139E+01  4.813856139E+01  0.000000000E+00  0.00000E+00  9.000E+00
      21     1     1     2   514   517 -3.487935533E+01 -1.048940723E+01 -2.949758050E+01  4.686901266E+01  9.536743164E-07  0.00000E+00  9.000E+00
      21     1     1     2   512   511  2.210671441E+01 -1.056506243E+00  4.373171120E+01  4.901311653E+01  6.743495762E-07  0.00000E+00  9.000E+00
      21     1     1     2   516   512  1.277264092E+01  1.154591348E+01  2.817571119E+00  1.744669542E+01  2.779775576E-07  0.00000E+00  9.000E+00
</event>
<event>
      5  10001  2.02673E+08  3.85425E+01 -1.00000E+00  1.45815E-01
      21    -1     0     0   514   515  0.000000000E+00  0.000000000E+00  1.295539730E+02  1.295539730E+02  0.000000000E+00  0.00000E+00  9.000E+00
      -4    -1     0     0     0   513  0.000000000E+00  0.000000000E+00 -8.893966044E+01  8.893966044E+01  0.000000000E+00  0.00000E+00  9.000E+00
      -4     1     1     2     0   511  7.773697396E+00 -2.019759155E+01 -6.875756226E+01  7.209872012E+01  1.500000000E+00  0.00000E+00  9.000E+00
      21     1     1     2   511   515  3.349972778E+00  5.709758426E+01  7.786993796E+01  9.661823681E+01  1.348699152E-06  0.00000E+00  9.000E+00
      21     1     1     2   514   513 -1.112367017E+01 -3.689999271E+01  3.150193689E+01  4.977667655E+01  8.259061849E-07  0.00000E+00  9.000E+00
</event>
<event>
      5  10001  2.02673E+08  5.83979E+01 -1.00000E+00  1.35307E-01
      21    -1     0     0   512   511  0.000000000E+00  0.000000000E+00  1.895180616E+01  1.895180616E+01  0.000000000E+00  0.00000E+00  9.000E+00
      21    -1     0     0   517   516  0.000000000E+00  0.000000000E+00 -6.378658076E+01  6.378658076E+01  0.000000000E+00  0.00000E+00  9.000E+00
      21     1     1     2   512   516 -3.777472063E+00  5.387352884E+00 -8.814801915E+00  1.099970905E+01  7.152557373E-07  0.00000E+00  9.000E+00
      21     1     1     2   517   515 -3.834774465E+00 -7.437548133E+00  1.656895355E+01  1.856213455E+01  5.331201500E-07  0.00000E+00  9.000E+00
      21     1     1     2   515   511  7.612246528E+00  2.050195249E+00 -5.258892623E+01  5.317654332E+01  0.000000000E+00  0.00000E+00  9.000E+00
</event>
<event>
      5  10001  2.02673E+08  6.68713E+00 -1.00000E+00  2.18326E-01
      21    -1     0     0   513   516  0.000000000E+00  0.000000000E+00  2.515142879E+01  2.515142879E+01  0.000000000E+00  0.00000E+00  9.000E+00
      21    -1     0     0   511   513  0.000000000E+00  0.000000000E+00 -6.241257464E+01  6.241257464E+01  0.000000000E+00  0.00000E+00  9.000E+00
      21     1     1     2   511   514  3.595429646E+01  3.142624411E+00 -4.558251192E+00  3.637808648E+01  2.528810911E-07  0.00000E+00  9.000E+00
      21     1     1     2   512   516 -3.116404684E+01 -1.179301658E+00 -3.369760851E+01  4.591423948E+01  6.743495762E-07  0.00000E+00  9.000E+00
      21     1     1     2   514   512 -4.790249623E+00 -1.963322752E+00  9.947138474E-01  5.271677467E+00  1.105099691E-07  0.00000E+00  9.000E+00
</event>
<event>
      5  10001  2.02673E+08  1.77163E+01 -1.00000E+00  1.70790E-01
       1    -1     0     0   513     0  0.000000000E+00  0.000000000E+00  4.073606264E+02  4.073606264E+02  0.000000000E+00  0.00000E+00  9.000E+00
      21    -1     0     0   512   513  0.000000000E+00  0.000000000E+00 -7.356785219E+01  7.356785219E+01  0.000000000E+00  0.00000E+00  9.000E+00
      21     1     1     2   512   511  5.106826422E+00  1.167004137E+01 -5.144926427E+01  5.300279555E+01  9.536743164E-07  0.00000E+00  9.000E+00
       1     1     1     2   515     0 -2.092495557E+01 -2.672195755E+01  4.000857281E+02  4.015228704E+02  3.300000131E-01  0.00000E+00  9.000E+00
      21     1     1     2   511   515  1.581812915E+01  1.505191618E+01 -1.484368961E+01  2.640281257E+01  2.384185791E-07  0.00000E+00  9.000E+00
</event>
<event>
      5  10001  2.02673E+08  1.06725E+01 -1.00000E+00  1.92489E-01
      21    -1     0     0   514   515  0.000000000E+00  0.000000000E+00  2.322856231E+01  2.322856231E+01  0.000000000E+00  0.00000E+00  9.000E+00
       3    -1     0     0   511     0  0.000000000E+00  0.000000000E+00 -7.717112932E+02  7.717112932E+02  0.000000000E+00  0.00000E+00  9.000E+00
      21     1     1     2   511   515  1.425213012E+01 -3.044503066E+01  1.009927254E+01  3.510011981E+01  1.209842153E-06  0.00000E+00  9.000E+00
       3     1     1     2   512     0 -6.501583546E+00  2.081291821E+01 -6.746114549E+02  6.749639348E+02  5.000000000E-01  0.00000E+00  9.000E+00
      21     1     1     2   514   512 -7.750546574E+00  9.632112449E+00 -8.397054850E+01  8.487580090E+01  9.536743164E-07  0.00000E+00  9.000E+00
</event>
<event>
      5  10001  2.02673E+08  9.91855E+00 -1.00000E+00  1.96110E-01
      21    -1     0     0   513   512  0.000000000E+00  0.000000000E+00  1.009521210E+02  1.009521210E+02  0.000000000E+00  0.00000E+00  9.000E+00
      21    -1     0     0   511   516  0.000000000E+00  0.000000000E+00 -1.750390790E+01  1.750390790E+01  0.000000000E+00  0.00000E+00  9.000E+00
      21     1     1     2   513   516 -2.881820466E+01 -2.425673564E+01  5.689175150E+01  6.823158750E+01  1.348699152E-06  0.00000E+00  9.000E+00
      21     1     1     2   511   515  2.536176905E+01  1.790812077E+01  1.077053982E+01  3.286220697E+01  3.153981341E-07  0.00000E+00  9.000E+00
      21     1     1     2   515   512  3.456435604E+00  6.348614877E+00  1.578592182E+01  1.736223446E+01  2.920019320E-07  0.00000E+00  9.000E+00
</event>
<event>
      5  10001  2.02673E+08  1.54770E+01 -1.00000E+00  1.76065E-01
       1    -1     0     0   514     0  0.000000000E+00  0.000000000E+00  1.535625147E+02  1.535625147E+02  0.000000000E+00  0.00000E+00  9.000E+00
      21    -1     0     0   517   512  0.000000000E+00  0.000000000E+00 -2.912743005E+01  2.912743005E+01  0.000000000E+00  0.00000E+00  9.000E+00
      21     1     1     2   514   512 -6.018174013E+00 -3.270564418E+01 -1.273372483E+01  3.560934327E+01  3.371747881E-07  0.00000E+00  9.000E+00
      21     1     1     2   517   511  2.053789261E+01  2.734752799E+01  6.699768528E+01  7.522221848E+01  1.348699152E-06  0.00000E+00  9.000E+00
       1     1     1     2   511     0 -1.451971860E+01  5.358116196E+00  7.017112423E+01  7.185838304E+01  3.300000131E-01  0.00000E+00  9.000E+00
</event>
<event>
      5  10001  2.02673E+08  7.39264E+00 -1.00000E+00  2.12188E-01
      -3    -1     0     0     0   513  0.000000000E+00  0.000000000E+00  1.033799589E+02  1.033799589E+02  0.000000000E+00  0.00000E+00  9.000E+00
      21    -1     0     0   512   514  0.000000000E+00  0.000000000E+00 -6.590041521E+01  6.590041521E+01  0.000000000E+00  0.00000E+00  9.000E+00
      -3     1     1     2     0   514  5.938260248E+01  7.166906020E+00  6.228844118E+01  8.635831126E+01  5.000000000E-01  0.00000E+00  9.000E+00
      21     1     1     2   511   513 -5.737570928E+01 -5.196592367E-02 -3.567335019E-01  5.737684180E+01  8.219817378E-07  0.00000E+00  9.000E+00
      21     1     1     2   512   511 -2.006893192E+00 -7.114940096E+00 -2.445216401E+01  2.554522104E+01  3.371747881E-07  0.00000E+00  9.000E+00
</event>
<event>
      5  10001  2.02673E+08  2.06800E+01 -1.00000E+00  1.65139E-01
       2    -1     0     0   512     0  0.000000000E+00  0.000000000E+00  2.719671756E+02  2.719671756E+02  0.000000000E+00  0.00000E+00  9.000E+00
      21    -1     0     0   515   511  0.000000000E+00  0.000000000E+00 -1.072436955E+01  1.072436955E+01  0.000000000E+00  0.00000E+00  9.000E+00
      21     1     1     2   512   511  2.495688594E+01  1.391169833E+01  1.380082298E+01  3.173080870E+01  6.529361695E-07  0.00000E+00  9.000E+00
       2     1     1     2   513     0 -2.140583156E+01 -2.279298589E+01  1.624542747E+02  1.654364836E+02  3.300000131E-01  0.00000E+00  9.000E+00
      21     1     1     2   515   513 -3.551054379E+00  8.881287562E+00  8.498770834E+01  8.552425285E+01  0.000000000E+00  0.00000E+00  9.000E+00
</event>
<event>
      5  10001  2.02673E+08  4.59233E+01 -1.00000E+00  1.41187E-01
      21    -1     0     0   513   515  0.000000000E+00  0.000000000E+00  1.810381375E+01  1.810381375E+01  0.000000000E+00  0.00000E+00  9.000E+00
       2    -1     0     0   515     0  0.000000000E+00  0.000000000E+00 -2.517713551E+02  2.517713551E+02  0.000000000E+00  0.00000E+00  9.000E+00
      21     1     1     2   513   514  3.346603726E+01  3.225555292E+01 -3.901242116E+01  6.068249623E+01  8.259061849E-07  0.00000E+00  9.000E+00
      21     1     1     2   514   511 -5.618827139E+00 -3.819849800E+01 -1.586886380E+02  1.633180342E+02  4.264961200E-06  0.00000E+00  9.000E+00
       2     1     1     2   511     0 -2.784721012E+01  5.942945083E+00 -3.596648218E+01  4.587463840E+01  3.300000131E-01  0.00000E+00  9.000E+00
</event>
<event>
      5  10001  2.02673E+08  2.27953E+01 -1.00000E+00  1.61774E-01
       2    -1     0     0   514     0  0.000000000E+00  0.000000000E+00  1.276049780E+02  1.276049780E+02  0.000000000E+00  0.00000E+00  9.000E+00
      21    -1     0     0   513   512  0.000000000E+00  0.000000000E+00 -7.570923894E+01  7.570923894E+01  0.000000000E+00  0.00000E+00  9.000E+00
      21     1     1     2   514   512  2.173604327E+01 -6.526915344E+00  2.794914840E+01  3.600293179E+01  8.259061849E-07  0.00000E+00  9.000E+00
       2     1     1     2   511     0 -4.385653600E+01  1.021749039E+00  8.854068557E+01  9.881296282E+01  3.300000131E-01  0.00000E+00  9.000E+00
      21     1     1     2   513   511  2.212049273E+01  5.505166305E+00 -6.459409495E+01  6.849832229E+01  9.536743164E-07  0.00000E+00  9.000E+00
</event>
<event>
      5  10001  2.02673E+08  3.39330E+01 -1.00000E+00  1.49381E-01
      21    -1     0     0   515   516  0.000000000E+00  0.000000000E+00  7.387187030E+01  7.387187030E+01  0.000000000E+00  0.00000E+00  9.000E+00
      21    -1     0     0   513   515  0.000000000E+00  0.000000000E+00 -1.840555717E+01  1.840555717E+01  0.000000000E+00  0.00000E+00  9.000E+00
      21     1     1     2   511   516  2.379469259E+01  8.915974305E+00  1.535004496E+01  2.968679629E+01  4.129530925E-07  0.00000E+00  9.000E+00
      21     1     1     2   512   511 -1.842261164E+01 -1.622977944E+01  3.420065770E+00  2.478901390E+01  4.860611686E-07  0.00000E+00  9.000E+00
      21     1     1     2   513   512 -5.372080955E+00  7.313805130E+00  3.669620240E+01  3.780161729E+01  0.000000000E+00  0.00000E+00  9.000E+00
</event>
<event>
      5  10001  2.02673E+08  1.28055E+01 -1.00000E+00  1.84058E-01
      21    -1     0     0   514   511  0.000000000E+00  0.000000000E+00  1.583505180E+01  1.583505180E+01  0.000000000E+00  0.00000E+00  9.000E+00
      21    -1     0     0   513   514  0.000000000E+00  0.000000000E+00 -7.712018723E+01  7.712018723E+01  0.000000000E+00  0.00000E+00  9.000E+00
      21     1     1     2   512   511  1.359421942E+01 -2.969242106E+01 -2.674413227E+01  4.221008507E+01  7.539457465E-07  0.00000E+00  9.000E+00
      21     1     1     2   515   512 -1.628730198E+01  1.767735182E+01 -2.764103289E+01  3.663047464E+01  3.371747881E-07  0.00000E+00  9.000E+00
      21     1     1     2   513   515  2.693082562E+00  1.201506924E+01 -6.899970277E+00  1.411467933E+01  1.884864366E-07  0.00000E+00  9.000E+00
</event>
<event>
      5  10001  2.02673E+08  2.20688E+01 -1.00000E+00  1.62878E-01
       1    -1     0     0   513     0  0.000000000E+00  0.000000000E+00  4.530460442E+02  4.530460442E+02  0.000000000E+00  0.00000E+00  9.000E+00
      21    -1     0     0   516   514  0.000000000E+00  0.000000000E+00 -7.314686354E+00  7.314686354E+00  0.000000000E+00  0.00000E+00  9.000E+00
      21     1     1     2   511   514  8.287947358E+00 -2.562065347E+00  1.125929373E+02  1.129266300E+02  1.348699152E-06  0.00000E+00  9.000E+00
       1     1     1     2   516     0 -4.522794330E+01  5.906255126E-01  8.255400689E+01  9.413388682E+01  3.300000131E-01  0.00000E+00  9.000E+00
      21     1     1     2   513   511  3.693999594E+01  1.971439834E+00  2.505844137E+02  2.533002137E+02  3.814697266E-06  0.00000E+00  9.000E+00
</event>
<event>
      5  10001  2.02673E+08  1.89268E+01 -1.00000E+00  1.68327E-01
      21    -1     0     0   512   511  0.000000000E+00  0.000000000E+00  5.701322130E+01  5.701322130E+01  0.000000000E+00  0.00000E+00  9.000E+00
      21    -1     0     0   515   512  0.000000000E+00  0.000000000E+00 -6.397391452E+01  6.397391452E+01  0.000000000E+00  0.00000E+00  9.000E+00
      21     1     1     2   516   511 -3.119494008E+01 -3.598961082E+00  4.482345371E+01  5.472859226E+01  9.536743164E-07  0.00000E+00  9.000E+00
      21     1     1     2   515   514  1.274508014E+01  8.788475954E+00 -4.195305647E+01  4.471837793E+01  8.259061849E-07  0.00000E+00  9.000E+00
      21     1     1     2   514   516  1.844985994E+01 -5.189514871E+00 -9.831090464E+00  2.154016565E+01  3.953724850E-07  0.00000E+00  9.000E+00
</event>
<event>
      5  10001  2.02673E+08  1.43303E+01 -1.00000E+00  1.79224E-01
       2    -1     0     0   513     0  0.000000000E+00  0.000000000E+00  2.363165355E+02  2.363165355E+02  0.000000000E+00  0.00000E+00  9.000E+00
      21    -1     0     0   511   516  0.000000000E+00  0.000000000E+00 -1.948126292E+01  1.948126292E+01  0.000000000E+00  0.00000E+00  9.000E+00
      21     1     1     2   513   516 -1.678237867E-03 -3.184298609E+01  3.931652754E+01  5.059412124E+01  8.259061849E-07  0.00000E+00  9.000E+00
      21     1     1     2   511   515  1.428146960E+01  3.064275291E+01  7.561016791E+00  3.464256998E+01  1.076189881E-06  0.00000E+00  9.000E+00
       2     1     1     2   515     0 -1.427979136E+01  1.200233174E+00  1.699577283E+02  1.705611072E+02  3.300000131E-01  0.00000E+00  9.000E+00
</event>
<event>
      5  10001  2.02673E+08  3.84637E+00 -1.00000E+00  2.67432E-01
      21    -1     0     0   512   511  0.000000000E+00  0.000000000E+00  2.463446579E+01  2.463446579E+01  0.000000000E+00  0.00000E+00  9.000E+00
      21    -1     0     0   517   513  0.000000000E+00  0.000000000E+00 -9.580169417E+01  9.580169417E+01  0.000000000E+00  0.00000E+00  9.000E+00
      21     1     1     2   512   514  9.889173111E-01 -4.175050954E+01 -2.710585149E+01  4.978765097E+01  1.261592536E-06  0.00000E+00  9.000E+00
      21     1     1     2   517   511  2.853379723E+00  4.157363787E+01 -1.989338935E+01  4.617635847E+01  4.768371582E-07  0.00000E+00  9.000E+00
      21     1     1     2   514   513 -3.842297034E+00  1.768716698E-01 -2.416798753E+01  2.447215052E+01  3.371747881E-07  0.00000E+00  9.000E+00
</event>
<event>
      5  10001  2.02673E+08  2.84189E+01 -1.00000E+00  1.54655E-01
      21    -1     0     0   515   513  0.000000000E+00  0.000000000E+00  1.655112676E+01  1.655112676E+01  0.000000000E+00  0.00000E+00  9.000E+00
      21    -1     0     0   514   516  0.000000000E+00  0.000000000E+00 -3.882838326E+02  3.882838326E+02  0.000000000E+00  0.00000E+00  9.000E+00
      21     1     1     2   515   516  1.610316291E+01 -2.192891559E+01  1.025469178E+00  2.722573748E+01  7.249686751E-07  0.00000E+00  9.000E+00
      21     1     1     2   514   511 -2.717187855E+01  6.050243987E+00 -3.233331924E+02  3.245293049E+02  5.394796609E-06  0.00000E+00  9.000E+00
      21     1     1     2   511   513  1.106871564E+01  1.587867160E+01 -4.942498261E+01  5.307991695E+01  6.743495762E-07  0.00000E+00  9.000E+00
</event>
<event>
      5  10001  2.02673E+08  2.13841E+01 -1.00000E+00  1.63966E-01
       2    -1     0     0   515     0  0.000000000E+00  0.000000000E+00  2.856367190E+02  2.856367190E+02  0.000000000E+00  0.00000E+00  9.000E+00
      21    -1     0     0   512   515  0.000000000E+00  0.000000000E+00 -3.380700480E+00  3.380700480E+00  0.000000000E+00  0.00000E+00  9.000E+00
      21     1     1     2   512   511  2.409290866E+01  1.092682346E+01  1.235596945E+02  1.263600483E+02  1.907348633E-06  0.00000E+00  9.000E+00
      21     1     1     2   511   514 -1.550593787E+01 -3.610570415E+00  3.504242103E+01  3.848949986E+01  4.768371582E-07  0.00000E+00  9.000E+00
       2     1     1     2   514     0 -8.586970795E+00 -7.316253044E+00  1.236539030E+02  1.241678713E+02  3.300000131E-01  0.00000E+00  9.000E+00
</event>
<event>
      5  10001  2.02673E+08  4.05593E+01 -1.00000E+00  1.44436E-01
       1    -1     0     0   512     0  0.000000000E+00  0.000000000E+00  4.015834313E+02  4.015834313E+02  0.000000000E+00  0.00000E+00  9.000E+00
       2    -1     0     0   513     0  0.000000000E+00  0.000000000E+00 -1.305687216E+01  1.305687216E+01  0.000000000E+00  0.00000E+00  9.000E+00
       1     1     1     2   513     0 -3.372866348E+01  3.162705336E+01  3.346828642E+02  3.378618383E+02  3.300000131E-01  0.00000E+00  9.000E+00
      21     1     1     2   512   511  1.270842004E+00 -2.005903552E+01  2.284394684E+01  3.042738656E+01  4.768371582E-07  0.00000E+00  9.000E+00
       2     1     1     2   511     0  3.245782148E+01 -1.156801784E+01  3.099974807E+01  4.635107865E+01  3.300000131E-01  0.00000E+00  9.000E+00
</event>
<event>
      5  10001  2.02673E+08  3.55427E+00 -1.00000E+00  2.76057E-01
      21    -1     0     0   511   513  0.000000000E+00  0.000000000E+00  3.236206364E+02  3.236206364E+02  0.000000000E+00  0.00000E+00  9.000E+00
       1    -1     0     0   512     0  0.000000000E+00  0.000000000E+00 -2.125575307E+02  2.125575307E+02  0.000000000E+00  0.00000E+00  9.000E+00
      21     1     1     2   512   514  1.464490978E+01  3.335782454E+01  1.369877109E+02  1.417492532E+02  4.264961200E-06  0.00000E+00  9.000E+00
       1     1     1     2   511     0 -1.152999928E+01 -3.506959428E+01 -2.085381666E+02  2.117807667E+02  3.300000131E-01  0.00000E+00  9.000E+00
      21     1     1     2   514   513 -3.114910495E+00  1.711769742E+00  1.826135615E+02  1.826481471E+02  0.000000000E+00  0.00000E+00  9.000E+00
</event>
<event>
      5  10001  2.02673E+08  2.09620E+01 -1.00000E+00  1.64662E-01
      21    -1     0     0   511   514  0.000000000E+00  0.000000000E+00  1.019356735E+02  1.019356735E+02  0.000000000E+00  0.00000E+00  9.000E+00
      21    -1     0     0   512   513  0.000000000E+00  0.000000000E+00 -3.737164891E+02  3.737164891E+02  0.000000000E+00  0.00000E+00  9.000E+00
      21     1     1     2   515   513 -2.342451112E+01 -2.039225208E+01 -3.007475798E+02  3.023469173E+02  3.814697266E-06  0.00000E+00  9.000E+00
      21     1     1     2   512   514  4.433103770E+01  1.886881990E+01 -6.281262270E+01  7.916248378E+01  2.236564522E-06  0.00000E+00  9.000E+00
      21     1     1     2   511   515 -2.090652658E+01  1.523432182E+00  9.177938681E+01  9.414276150E+01  1.907348633E-06  0.00000E+00  9.000E+00
</event>
<event>
      5  10001  2.02673E+08  1.27118E+01 -1.00000E+00  1.84383E-01
       2    -1     0     0   511     0  0.000000000E+00  0.000000000E+00  5.967285686E+02  5.967285686E+02  0.000000000E+00  0.00000E+00  9.000E+00
       1    -1     0     0   514     0  0.000000000E+00  0.000000000E+00 -1.567859975E+01  1.567859975E+01  0.000000000E+00  0.00000E+00  9.000E+00
       1     1     1     2   512     0 -2.287948100E+01  1.441782858E+01  1.234849961E-02  2.704539673E+01  3.300000131E-01  0.00000E+00  9.000E+00
       2     1     1     2   514     0  3.111601112E+01 -2.460481310E+01  5.529299461E+02  5.543511858E+02  3.300000131E-01  0.00000E+00  9.000E+00
      21     1     1     2   511   512 -8.236530117E+00  1.018698452E+01  2.810767423E+01  3.101058581E+01  0.000000000E+00  0.00000E+00  9.000E+00
</event>
<event>
      5  10001  2.02673E+08  4.72929E+00 -1.00000E+00  2.47336E-01
      21    -1     0     0   514   515  0.000000000E+00  0.000000000E+00  7.028388152E+01  7.028388152E+01  0.000000000E+00  0.00000E+00  9.000E+00
       2    -1     0     0   512     0  0.000000000E+00  0.000000000E+00 -2.458599937E+02  2.458599937E+02  0.000000000E+00  0.00000E+00  9.000E+00
      21     1     1     2   514   513 -3.030581509E+01  5.646906639E+00 -3.354100775E+01  4.555578102E+01  1.430511475E-06  0.00000E+00  9.000E+00
       2     1     1     2   513     0  2.935308806E+01 -1.027923326E+01 -2.050502610E+02  2.073957204E+02  3.300000131E-01  0.00000E+00  9.000E+00
      21     1     1     2   512   515  9.527270271E-01  4.632326621E+00  6.301515660E+01  6.319237375E+01  6.743495762E-07  0.00000E+00  9.000E+00
</event>
<event>
      5  10001  2.02673E+08  2.00129E+01 -1.00000E+00  1.66304E-01
      21    -1     0     0   511   516  0.000000000E+00  0.000000000E+00  5.725251430E+01  5.725251430E+01  0.000000000E+00  0.00000E+00  9.000E+00
      21    -1     0     0   512   511  0.000000000E+00  0.000000000E+00 -7.859748938E+01  7.859748938E+01  0.000000000E+00  0.00000E+00  9.000E+00
      21     1     1     2   515   516  2.602417820E+00  3.403333514E+01  4.159990205E+01  5.381070831E+01  9.536743164E-07  0.00000E+00  9.000E+00
      21     1     1     2   512   513 -2.813033069E+00 -2.003717361E+01 -6.483095765E+01  6.791505393E+01  0.000000000E+00  0.00000E+00  9.000E+00
      21     1     1     2   513   515  2.106152481E-01 -1.399616152E+01  1.886080526E+00  1.412424143E+01  1.228781231E-07  0.00000E+00  9.000E+00
</event>
<event>
      5  10001  2.02673E+08  1.74627E+01 -1.00000E+00  1.71337E-01
      21    -1     0     0   514   512  0.000000000E+00  0.000000000E+00  3.558426862E+01  3.558426862E+01  0.000000000E+00  0.00000E+00  9.000E+00
      21    -1     0     0   516   515  0.000000000E+00  0.000000000E+00 -5.043351689E+01  5.043351689E+01  0.000000000E+00  0.00000E+00  9.000E+00
      21     1     1     2   514   515  1.757604877E+01 -3.296802603E+01  8.649909563E+00  3.834878311E+01  5.717076687E-07  0.00000E+00  9.000E+00
      21     1     1     2   511   512 -3.256864943E+00  1.700033122E+01 -1.909671623E+01  2.577407615E+01  2.384185791E-07  0.00000E+00  9.000E+00
      21     1     1     2   516   511 -1.431918383E+01  1.596769481E+01 -4.402441606E+00  2.189492624E+01  3.209808354E-07  0.00000E+00  9.000E+00
</event>
<event>
      5  10001  2.02673E+08  5.89497E+00 -1.00000E+00  2.26590E-01
      -4    -1     0     0     0   513  0.000000000E+00  0.000000000E+00  4.163185576E+01  4.163185576E+01  0.000000000E+00  0.00000E+00  9.000E+00
      21    -1     0     0   512   514  0.000000000E+00  0.000000000E+00 -1.737641678E+02  1.737641678E+02  0.000000000E+00  0.00000E+00  9.000E+00
      -4     1     1     2     0   511 -3.358686661E+01 -3.240957196E+00  3.240213815E+01  4.680523442E+01  1.500000000E+00  0.00000E+00  9.000E+00
      21     1     1     2   512   513  2.895762493E+01  6.889972063E+00 -1.496516905E+02  1.525832370E+02  3.303624740E-06  0.00000E+00  9.000E+00
      21     1     1     2   511   514  4.629241681E+00 -3.649014867E+00 -1.488275966E+01  1.600755207E+01  0.000000000E+00  0.00000E+00  9.000E+00
</event>
<event>
      5  10001  2.02673E+08  1.26353E+01 -1.00000E+00  1.84651E-01
      21    -1     0     0   515   513  0.000000000E+00  0.000000000E+00  9.780907254E+01  9.780907254E+01  0.000000000E+00  0.00000E+00  9.000E+00
      21    -1     0     0   516   515  0.000000000E+00  0.000000000E+00 -1.264456646E+01  1.264456646E+01  0.000000000E+00  0.00000E+00  9.000E+00
      21     1     1     2   512   513 -2.568938288E+01 -1.003917154E+01  6.393069809E+01  6.962660064E+01  9.536743164E-07  0.00000E+00  9.000E+00
      21     1     1     2   516   517  1.775476222E+01  6.753111242E+00  1.204122189E+00  1.903381210E+01  3.622545535E-07  0.00000E+00  9.000E+00
      21     1     1     2   517   512  7.934620663E+00  3.286060298E+00  2.002968580E+01  2.179322625E+01  3.371747881E-07  0.00000E+00  9.000E+00
</event>
<event>
      5  10001  2.02673E+08  4.25419E+01 -1.00000E+00  1.43169E-01
      21    -1     0     0   511   514  0.000000000E+00  0.000000000E+00  6.188219610E+01  6.188219610E+01  0.000000000E+00  0.00000E+00  9.000E+00
       2    -1     0     0   513     0  0.000000000E+00  0.000000000E+00 -4.549378904E+01  4.549378904E+01  0.000000000E+00  0.00000E+00  9.000E+00
      21     1     1     2   515   514 -2.207078996E+01  2.401737452E+01  3.694345732E+01  4.928258402E+01  1.066240300E-06  0.00000E+00  9.000E+00
       2     1     1     2   511     0 -1.688648600E+00 -2.744340512E+01 -2.014106875E+01  3.408465298E+01  3.300000131E-01  0.00000E+00  9.000E+00
      21     1     1     2   513   515  2.375943856E+01  3.426030596E+00 -4.139815089E-01  2.400874814E+01  3.418347164E-07  0.00000E+00  9.000E+00
</event>
<event>
      5  10001  2.02673E+08  7.04253E+00 -1.00000E+00  2.15111E-01
      21    -1     0     0   512   515  0.000000000E+00  0.000000000E+00  1.216300450E+03  1.216300450E+03  0.000000000E+00  0.00000E+00  9.000E+00
      21    -1     0     0   513   512  0.000000000E+00  0.000000000E+00 -1.101686090E+00  1.101686090E+00  0.000000000E+00  0.00000E+00  9.000E+00
      21     1     1     2   516   515 -2.974953989E+01 -1.258819800E+01  8.839353978E+02  8.845254577E+02  1.078959322E-05  0.00000E+00  9.000E+00
      21     1     1     2   511   516  1.206352628E+01  2.827609527E+00  1.413314494E+02  1.418735445E+02  1.907348633E-06  0.00000E+00  9.000E+00
      21     1     1     2   513   511  1.768601361E+01  9.760588473E+00  1.899319172E+02  1.910031343E+02  0.000000000E+00  0.00000E+00  9.000E+00
</event>
<event>
      5  10001  2.02673E+08  1.24645E+01 -1.00000E+00  1.85259E-01
       2    -1     0     0   512     0  0.000000000E+00  0.000000000E+00  2.272175088E+02  2.272175088E+02  0.000000000E+00  0.00000E+00  9.000E+00
      21    -1     0     0   511   515  0.000000000E+00  0.000000000E+00 -2.155144736E+01  2.155144736E+01  0.000000000E+00  0.00000E+00  9.000E+00
      21     1     1     2   511   514 -3.152772558E+01 -2.002692722E+01  9.824260545E+00  3.862112621E+01  1.059555342E-06  0.00000E+00  9.000E+00
       2     1     1     2   514     0  2.095996487E+01  1.341760481E+01  1.961075377E+02  1.976806199E+02  3.300000131E-01  0.00000E+00  9.000E+00
      21     1     1     2   512   515  1.056776072E+01  6.609322409E+00 -2.657368290E-01  1.246721001E+01  2.829259268E-07  0.00000E+00  9.000E+00
</event>
<event>
      5  10001  2.02673E+08  1.90340E+01 -1.00000E+00  1.68120E-01
      21    -1     0     0   513   511  0.000000000E+00  0.000000000E+00  3.095487731E+01  3.095487731E+01  0.000000000E+00  0.00000E+00  9.000E+00
      21    -1     0     0   516   514  0.000000000E+00  0.000000000E+00 -3.464039932E+02  3.464039932E+02  0.000000000E+00  0.00000E+00  9.000E+00
      21     1     1     2   515   511  4.102259407E+01 -1.829287087E+01  9.456911606E+00  4.590114950E+01  1.440411326E-06  0.00000E+00  9.000E+00
      21     1     1     2   516   515 -3.008351163E+01  2.716263229E+00 -2.910887142E+02  2.926517304E+02  3.814697266E-06  0.00000E+00  9.000E+00
      21     1     1     2   513   514 -1.093908244E+01  1.557660764E+01 -3.381731330E+01  3.880599063E+01  4.768371582E-07  0.00000E+00  9.000E+00
</event>
<event>
      5  10001  2.02673E+08  1.89723E+01 -1.00000E+00  1.68239E-01
      21    -1     0     0   512   514  0.000000000E+00  0.000000000E+00  7.841075409E+01  7.841075409E+01  0.000000000E+00  0.00000E+00  9.000E+00
      21    -1     0     0   511   517  0.000000000E+00  0.000000000E+00 -3.554563506E+02  3.554563506E+02  0.000000000E+00  0.00000E+00  9.000E+00
      21     1     1     2   512   517 -5.791663934E+01 -1.786401315E+00  6.157892316E+01  8.455466941E+01  2.697398305E-06  0.00000E+00  9.000E+00
      21     1     1     2   515   514  4.602875801E+01 -6.001745579E+00 -3.287403838E+02  3.320013667E+02  0.000000000E+00  0.00000E+00  9.000E+00
      21     1     1     2   511   515  1.188788133E+01  7.788146895E+00 -9.884135828E+00  1.731106859E+01  3.371747881E-07  0.00000E+00  9.000E+00
</event>
<event>
      5  10001  2.02673E+08  1.56735E+01 -1.00000E+00  1.75559E-01
      21    -1     0     0   513   515  0.000000000E+00  0.000000000E+00  7.811109707E+00  7.811109707E+00  0.000000000E+00  0.00000E+00  9.000E+00
      21    -1     0     0   511   513  0.000000000E+00  0.000000000E+00 -1.346377529E+02  1.346377529E+02  0.000000000E+00  0.00000E+00  9.000E+00
      21     1     1     2   511   516  5.270557499E+00 -2.640204152E+01 -5.017678625E+01  5.694344959E+01  6.743495762E-07  0.00000E+00  9.000E+00
      21     1     1     2   516   512  3.859168685E+00  2.784704518E+01 -5.091485695E+01  5.816075796E+01  9.536743164E-07  0.00000E+00  9.000E+00
      21     1     1     2   512   515 -9.129726184E+00 -1.445003659E+00 -2.573500002E+01  2.734465509E+01  3.371747881E-07  0.00000E+00  9.000E+00
</event>
<event>
      5  10001  2.02673E+08  5.25923E+01 -1.00000E+00  1.37806E-01
      21    -1     0     0   512   514  0.000000000E+00  0.000000000E+00  5.532425814E+00  5.532425814E+00  0.000000000E+00  0.00000E+00  9.000E+00
       2    -1     0     0   515     0  0.000000000E+00  0.000000000E+00 -3.795506720E+02  3.795506720E+02  0.000000000E+00  0.00000E+00  9.000E+00
      21     1     1     2   515   514 -1.322687273E+01  2.409774812E+01 -2.526338476E+02  2.541249940E+02  3.814697266E-06  0.00000E+00  9.000E+00
       2     1     1     2   511     0 -4.915712201E+00 -1.951372648E+01 -1.021843790E+02  1.041475202E+02  3.300000131E-01  0.00000E+00  9.000E+00
      21     1     1     2   512   511  1.814258493E+01 -4.584021640E+00 -1.920001957E+01  2.681058362E+01  4.768371582E-07  0.00000E+00  9.000E+00
</event>
<event>
      5  10001  2.02673E+08  1.54667E+01 -1.00000E+00  1.76092E-01
       1    -1     0     0   513     0  0.000000000E+00  0.000000000E+00  2.454100743E+02  2.454100743E+02  0.000000000E+00  0.00000E+00  9.000E+00
      21    -1     0     0   514   511  0.000000000E+00  0.000000000E+00 -3.009321925E+02  3.009321925E+02  0.000000000E+00  0.00000E+00  9.000E+00
      21     1     1     2   513   511  2.833234350E+01  3.528360743E+01 -2.829287771E+02  2.865246020E+02  7.629394531E-06  0.00000E+00  9.000E+00
       1     1     1     2   512     0 -1.373343593E+01 -3.017582041E+01  2.384939228E+02  2.407875568E+02  3.300000131E-01  0.00000E+00  9.000E+00
      21     1     1     2   514   512 -1.459890757E+01 -5.107787018E+00 -1.108726394E+01  1.903010804E+01  2.064765462E-07  0.00000E+00  9.000E+00
</event>
<event>
      5  10001  2.02673E+08  1.72824E+01 -1.00000E+00  1.71734E-01
      21    -1     0     0   511   512  0.000000000E+00  0.000000000E+00  1.143728970E+02  1.143728970E+02  0.000000000E+00  0.00000E+00  9.000E+00
       1    -1     0     0   515     0  0.000000000E+00  0.000000000E+00 -4.392180520E+02  4.392180520E+02  0.000000000E+00  0.00000E+00  9.000E+00
      21     1     1     2   515   512 -1.805222781E+01  6.066419494E+01 -5.658365391E+01  8.489839437E+01  2.861022949E-06  0.00000E+00  9.000E+00
       1     1     1     2   514     0  6.627026042E+00 -4.769703619E+01 -3.661433881E+02  3.692966481E+02  3.300000131E-01  0.00000E+00  9.000E+00
      21     1     1     2   511   514  1.142520177E+01 -1.296715875E+01  9.788188697E+01  9.939590655E+01  1.907348633E-06  0.00000E+00  9.000E+00
</event>
<event>
      5  10001  2.02673E+08  6.57213E+01 -1.00000E+00  1.32597E-01
       2    -1     0     0   514     0  0.000000000E+00  0.000000000E+00  8.113963356E+02  8.113963356E+02  0.000000000E+00  0.00000E+00  9.000E+00
      21    -1     0     0   511   513  0.000000000E+00  0.000000000E+00 -4.616012975E+00  4.616012975E+00  0.000000000E+00  0.00000E+00  9.000E+00
      21     1     1     2   512   513 -1.892291790E+01 -3.244017417E+00  4.205258899E+01  4.622792135E+01  0.000000000E+00  0.00000E+00  9.000E+00
       2     1     1     2   511     0 -8.585100399E+00 -2.566081403E+01  5.873894411E+02  5.880124537E+02  3.300000131E-01  0.00000E+00  9.000E+00
      21     1     1     2   514   512  2.750801830E+01  2.890483145E+01  1.773382925E+02  1.817719735E+02  3.303624740E-06  0.00000E+00  9.000E+00
</event>
<event>
      5  10001  2.02673E+08  2.45240E+01 -1.00000E+00  1.59341E-01
      21    -1     0     0   515   511  0.000000000E+00  0.000000000E+00  1.666320220E+02  1.666320220E+02  0.000000000E+00  0.00000E+00  9.000E+00
      21    -1     0     0   516   512  0.000000000E+00  0.000000000E+00 -8.801107787E+00  8.801107787E+00  0.000000000E+00  0.00000E+00  9.000E+00
      21     1     1     2   515   512  1.608795242E+01 -2.672217147E+01  3.682449290E+01  4.825909177E+01  0.000000000E+00  0.00000E+00  9.000E+00
      21     1     1     2   513   511 -1.284755839E+01  5.211460468E+00  7.516635060E+01  7.643428118E+01  1.348699152E-06  0.00000E+00  9.000E+00
      21     1     1     2   516   513 -3.240394024E+00  2.151071100E+01  4.584007067E+01  5.073975680E+01  6.743495762E-07  0.00000E+00  9.000E+00
</event>
<event>
      5  10001  2.02673E+08  2.66540E+01 -1.00000E+00  1.56658E-01
      -1    -1     0     0     0   511  0.000000000E+00  0.000000000E+00  1.179919284E+01  1.179919284E+01  0.000000000E+00  0.00000E+00  9.000E+00
       2    -1     0     0   511     0  0.000000000E+00  0.000000000E+00 -3.914373752E+02  3.914373752E+02  0.000000000E+00  0.00000E+00  9.000E+00
      -1     1     1     2     0   514 -3.612303888E+01  2.250623828E+01 -3.533710450E+01  5.531929640E+01  3.300000131E-01  0.00000E+00  9.000E+00
      21     1     1     2   514   512  7.999235089E+00 -1.915773875E+01 -1.799145203E+02  1.811083690E+02  3.814697266E-06  0.00000E+00  9.000E+00
       2     1     1     2   512     0  2.812380379E+01 -3.348499534E+00 -1.643865576E+02  1.668089026E+02  3.300000131E-01  0.00000E+00  9.000E+00
</event>
<event>
      5  10001  2.02673E+08  4.16665E+01 -1.00000E+00  1.43718E-01
      21    -1     0     0   513   512  0.000000000E+00  0.000000000E+00  3.514562044E+02  3.514562044E+02  0.000000000E+00  0.00000E+00  9.000E+00
      21    -1     0     0   511   513  0.000000000E+00  0.000000000E+00 -4.435907962E+00  4.435907962E+00  0.000000000E+00  0.00000E+00  9.000E+00
      21     1     1     2   515   512  6.375791665E+00 -1.677420744E+01  1.600167604E+02  1.610198385E+02  2.697398305E-06  0.00000E+00  9.000E+00
      21     1     1     2   514   515 -3.112487786E+00  7.286301834E+00  3.308570065E-01  7.930147603E+00  6.634573639E-07  0.00000E+00  9.000E+00
      21     1     1     2   511   514 -3.263303879E+00  9.487905601E+00  1.866726790E+02  1.869421263E+02  0.000000000E+00  0.00000E+00  9.000E+00
</event>
<event>
      5  10001  2.02673E+08  5.74132E+00 -1.00000E+00  2.28405E-01
      21    -1     0     0   516   513  0.000000000E+00  0.000000000E+00  7.862978680E+01  7.862978680E+01  0.000000000E+00  0.00000E+00  9.000E+00
      21    -1     0     0   511   516  0.000000000E+00  0.000000000E+00 -8.143933749E+01  8.143933749E+01  0.000000000E+00  0.00000E+00  9.000E+00
      21     1     1     2   511   517 -2.865456828E+01 -2.221842887E+01 -5.835521291E+01  6.870279280E+01  1.168007728E-06  0.00000E+00  9.000E+00
      21     1     1     2   517   512  2.346600511E+01  1.976047323E+01 -4.535656456E+00  3.101131854E+01  3.908537939E-07  0.00000E+00  9.000E+00
      21     1     1     2   512   513  5.188563173E+00  2.457955634E+00  6.008131868E+01  6.035501295E+01  0.000000000E+00  0.00000E+00  9.000E+00
</event>
<event>
      5  10001  2.02673E+08  2.19880E+01 -1.00000E+00  1.63004E-01
      21    -1     0     0   514   515  0.000000000E+00  0.000000000E+00  2.918961942E+02  2.918961942E+02  0.000000000E+00  0.00000E+00  9.000E+00
      21    -1     0     0   513   514  0.000000000E+00  0.000000000E+00 -4.729343009E+01  4.729343009E+01  0.000000000E+00  0.00000E+00  9.000E+00
      21     1     1     2   513   511  2.778988764E+01 -2.846910803E+01 -3.525722869E+01  5.315863187E+01  4.768371582E-07  0.00000E+00  9.000E+00
      21     1     1     2   511   516 -1.785006552E+01  9.070407469E+00  2.379565900E+02  2.387974787E+02  0.000000000E+00  0.00000E+00  9.000E+00
      21     1     1     2   516   515 -9.939822119E+00  1.939870056E+01  4.190340281E+01  4.723351368E+01  9.536743164E-07  0.00000E+00  9.000E+00
</event>
<event>
      5  10001  2.02673E+08  1.29384E+01 -1.00000E+00  1.83603E-01
       4    -1     0     0   512     0  0.000000000E+00  0.000000000E+00  3.284091306E+01  3.284091306E+01  0.000000000E+00  0.00000E+00  9.000E+00
       1    -1     0     0   513     0  0.000000000E+00  0.000000000E+00 -1.168288387E+02  1.168288387E+02  0.000000000E+00  0.00000E+00  9.000E+00
      21     1     1     2   512   511  9.445212722E+00  2.056249307E+01 -8.461865800E+01  8.759192569E+01  9.536743164E-07  0.00000E+00  9.000E+00
       4     1     1     2   513     0 -1.963823871E+00 -3.177175582E+01  2.062777628E+01  3.796124637E+01  1.500000000E+00  0.00000E+00  9.000E+00
       1     1     1     2   511     0 -7.481388852E+00  1.120926275E+01 -1.999704393E+01  2.411657970E+01  3.300000131E-01  0.00000E+00  9.000E+00
</event>
<event>
      5  10001  2.02673E+08  1.87854E+01 -1.00000E+00  1.68603E-01
      21    -1     0     0   514   513  0.000000000E+00  0.000000000E+00  3.527554024E+02  3.527554024E+02  0.000000000E+00  0.00000E+00  9.000E+00
      21    -1     0     0   511   515  0.000000000E+00  0.000000000E+00 -4.976590575E+00  4.976590575E+00  0.000000000E+00  0.00000E+00  9.000E+00
      21     1     1     2   514   515  2.523348100E+00  3.212918670E+01  6.670748978E+01  7.408468882E+01  1.907348633E-06  0.00000E+00  9.000E+00
      21     1     1     2   511   512 -5.924152837E+00 -2.274053098E+01  1.207559611E+02  1.230212562E+02  0.000000000E+00  0.00000E+00  9.000E+00
      21     1     1     2   512   513  3.400804738E+00 -9.388655722E+00  1.603153609E+02  1.606260479E+02  2.697398305E-06  0.00000E+00  9.000E+00
</event>
<event>
      5  10001  2.02673E+08  1.31323E+01 -1.00000E+00  1.82952E-01
      21    -1     0     0   512   513  0.000000000E+00  0.000000000E+00  3.876374326E+00  3.876374326E+00  0.000000000E+00  0.00000E+00  9.000E+00
      21    -1     0     0   511   514  0.000000000E+00  0.000000000E+00 -5.724760334E+02  5.724760334E+02  0.000000000E+00  0.00000E+00  9.000E+00
      -2     1     1     2     0   514  1.678051378E+01 -3.280781011E+01 -1.853436507E+02  1.889717328E+02  3.300000131E-01  0.00000E+00  9.000E+00
       2     1     1     2   512     0 -2.980593989E+01  3.113917133E+01 -2.816544965E+02  2.849340386E+02  3.300000131E-01  0.00000E+00  9.000E+00
      21     1     1     2   511   513  1.302542612E+01  1.668638779E+00 -1.016015119E+02  1.024466364E+02  0.000000000E+00  0.00000E+00  9.000E+00
</event>
<event>
      5  10001  2.02673E+08  4.09942E+01 -1.00000E+00  1.44151E-01
      21    -1     0     0   516   511  0.000000000E+00  0.000000000E+00  1.122208566E+01  1.122208566E+01  0.000000000E+00  0.00000E+00  9.000E+00
      21    -1     0     0   515   516  0.000000000E+00  0.000000000E+00 -1.306459026E+02  1.306459026E+02  0.000000000E+00  0.00000E+00  9.000E+00
      -2     1     1     2     0   511 -1.567398694E+01 -2.167421585E+01 -3.160440033E+01  4.140522334E+01  3.300000131E-01  0.00000E+00  9.000E+00
      21     1     1     2   515   512  8.234267531E+00  4.872637305E+00 -7.986683340E+01  8.043790670E+01  9.536743164E-07  0.00000E+00  9.000E+00
       2     1     1     2   512     0  7.439719409E+00  1.680157855E+01 -7.952583167E+00  2.002485819E+01  3.300000131E-01  0.00000E+00  9.000E+00
</event>
<event>
      5  10001  2.02673E+08  6.38047E+00 -1.00000E+00  2.21328E-01
       2    -1     0     0   513     0  0.000000000E+00  0.000000000E+00  2.457599082E+02  2.457599082E+02  0.000000000E+00  0.00000E+00  9.000E+00
      21    -1     0     0   514   513  0.000000000E+00  0.000000000E+00 -2.473223467E+01  2.473223467E+01  0.000000000E+00  0.00000E+00  9.000E+00
      21     1     1     2   514   517  1.282679091E+01  2.637917095E+01 -2.974950357E+00  2.948283491E+01  6.364034565E-07  0.00000E+00  9.000E+00
      21     1     1     2   517   511 -1.678568687E+01 -3.138288165E+01  2.901914901E+01  4.592118850E+01  1.011524364E-06  0.00000E+00  9.000E+00
       2     1     1     2   511     0  3.958895963E+00  5.003710706E+00  1.949834749E+02  1.950881195E+02  3.300000131E-01  0.00000E+00  9.000E+00
</event>
<event>
      5  10001  2.02673E+08  1.18161E+01 -1.00000E+00  1.87683E-01
      21    -1     0     0   512   511  0.000000000E+00  0.000000000E+00  2.022510879E+01  2.022510879E+01  0.000000000E+00  0.00000E+00  9.000E+00
      21    -1     0     0   515   513  0.000000000E+00  0.000000000E+00 -2.121617396E+02  2.121617396E+02  0.000000000E+00  0.00000E+00  9.000E+00
      21     1     1     2   516   511 -4.035696555E+01 -1.420304106E+01 -1.161435696E+01  4.433175308E+01  2.920019320E-07  0.00000E+00  9.000E+00
      21     1     1     2   515   516  3.168906913E+01  2.223346597E+01 -1.070077379E+02  1.137944642E+02  1.348699152E-06  0.00000E+00  9.000E+00
      21     1     1     2   512   513  8.667896420E+00 -8.030424915E+00 -7.331453598E+01  7.426063115E+01  0.000000000E+00  0.00000E+00  9.000E+00
</event>
<event>
      5  10001  2.02673E+08  7.93424E+00 -1.00000E+00  2.08074E-01
      21    -1     0     0   514   511  0.000000000E+00  0.000000000E+00  1.989566883E+01  1.989566883E+01  0.000000000E+00  0.00000E+00  9.000E+00
      21    -1     0     0   517   514  0.000000000E+00  0.000000000E+00 -4.903719094E+01  4.903719094E+01  0.000000000E+00  0.00000E+00  9.000E+00
      21     1     1     2   517   513  6.398385059E+00 -2.817463326E+01 -1.880178926E+01  3.447109760E+01  2.384185791E-07  0.00000E+00  9.000E+00
      21     1     1     2   513   515 -1.970577322E+00  2.491706456E+01 -2.829181422E+00  2.515447374E+01  2.795705652E-07  0.00000E+00  9.000E+00
      21     1     1     2   515   511 -4.427807737E+00  3.257568694E+00 -7.510551432E+00  9.307288432E+00  1.192092896E-07  0.00000E+00  9.000E+00
</event>
<event>
      5  10001  2.02673E+08  1.97581E+01 -1.00000E+00  1.66764E-01
      -2    -1     0     0     0   511  0.000000000E+00  0.000000000E+00  1.463343654E+02  1.463343654E+02  0.000000000E+00  0.00000E+00  9.000E+00
      21    -1     0     0   511   513  0.000000000E+00  0.000000000E+00 -1.218944988E+02  1.218944988E+02  0.000000000E+00  0.00000E+00  9.000E+00
      -2     1     1     2     0   514 -5.186862457E+00 -3.526396518E+01  1.373435986E+02  1.418937058E+02  3.300000131E-01  0.00000E+00  9.000E+00
      21     1     1     2   514   512  2.249095456E+01  2.572720131E+01 -5.129141524E+01  6.163230647E+01  1.907348633E-06  0.00000E+00  9.000E+00
      21     1     1     2   512   513 -1.730409210E+01  9.536763871E+00 -6.161231673E+01  6.470285188E+01  6.743495762E-07  0.00000E+00  9.000E+00
</event>
<event>
      5  10001  2.02673E+08  8.95423E+00 -1.00000E+00  2.01409E-01
      21    -1     0     0   514   513  0.000000000E+00  0.000000000E+00  1.201602296E+02  1.201602296E+02  0.000000000E+00  0.00000E+00  9.000E+00
      21    -1     0     0   511   516  0.000000000E+00  0.000000000E+00 -1.597908896E+01  1.597908896E+01  0.000000000E+00  0.00000E+00  9.000E+00
      21     1     1     2   515   516  8.095386231E+00  2.642218468E+01  7.484857144E+00  2.863023241E+01  2.528810911E-07  0.00000E+00  9.000E+00
      21     1     1     2   511   513 -9.408796349E+00 -3.527956049E+01  6.478983137E+01  7.436998781E+01  9.536743164E-07  0.00000E+00  9.000E+00
      21     1     1     2   514   515  1.313410118E+00  8.857375807E+00  3.190645210E+01  3.313909833E+01  6.743495762E-07  0.00000E+00  9.000E+00
</event>
<event>
      5  10001  2.02673E+08  5.49335E+00 -1.00000E+00  2.31509E-01
      21    -1     0     0   512   513  0.000000000E+00  0.000000000E+00  3.411024256E+01  3.411024256E+01  0.000000000E+00  0.00000E+00  9.000E+00
      21    -1     0     0   516   512  0.000000000E+00  0.000000000E+00 -6.098597679E+01  6.098597679E+01  0.000000000E+00  0.00000E+00  9.000E+00
      21     1     1     2   511   513  3.154056741E+01 -1.315329016E+01  1.405668058E+01  3.695141003E+01  5.840038640E-07  0.00000E+00  9.000E+00
      21     1     1     2   517   511 -2.606464071E+01  1.359050151E+01 -1.778957497E+01  3.435893194E+01  4.129530925E-07  0.00000E+00  9.000E+00
      21     1     1     2   516   517 -5.475926697E+00 -4.372113477E-01 -2.314283984E+01  2.378587738E+01  0.000000000E+00  0.00000E+00  9.000E+00
</event>
<event>
      5  10001  2.02673E+08  1.16932E+01 -1.00000E+00  1.88165E-01
       2    -1     0     0   511     0  0.000000000E+00  0.000000000E+00  4.583661067E+02  4.583661067E+02  0.000000000E+00  0.00000E+00  9.000E+00
      21    -1     0     0   512   511  0.000000000E+00  0.000000000E+00 -9.763729838E+00  9.763729838E+00  0.000000000E+00  0.00000E+00  9.000E+00
      21     1     1     2   515   514  1.148402585E+01  3.530823127E+01  2.109789919E+02  2.142211219E+02  5.394796609E-06  0.00000E+00  9.000E+00
       2     1     1     2   514     0 -3.504326869E-01 -3.173460646E+01  2.399048564E+02  2.419951592E+02  3.300000131E-01  0.00000E+00  9.000E+00
      21     1     1     2   512   515 -1.113359316E+01 -3.573624810E+00 -2.281471450E+00  1.191355543E+01  1.115100797E-07  0.00000E+00  9.000E+00
</event>
<event>
      5  10001  2.02673E+08  9.67497E+00 -1.00000E+00  1.97371E-01
      21    -1     0     0   513   512  0.000000000E+00  0.000000000E+00  1.729394868E+02  1.729394868E+02  0.000000000E+00  0.00000E+00  9.000E+00
      -3    -1     0     0     0   514  0.000000000E+00  0.000000000E+00 -1.704536537E+01  1.704536537E+01  0.000000000E+00  0.00000E+00  9.000E+00
      -3     1     1     2     0   511  1.705084994E+01 -4.383598791E+01  7.325536187E+01  8.705701214E+01  5.000000000E-01  0.00000E+00  9.000E+00
      21     1     1     2   511   512 -1.272295768E+01  3.518325666E+01  8.508618939E+01  9.294834493E+01  9.536743164E-07  0.00000E+00  9.000E+00
      21     1     1     2   513   514 -4.327892263E+00  8.652731255E+00 -2.447429823E+00  9.979495095E+00  1.604904177E-07  0.00000E+00  9.000E+00
</event>
<event>
      5  10001  2.02673E+08  1.47869E+01 -1.00000E+00  1.77923E-01
       1    -1     0     0   511     0  0.000000000E+00  0.000000000E+00  9.654358234E+02  9.654358234E+02  0.000000000E+00  0.00000E+00  9.000E+00
      21    -1     0     0   513   514  0.000000000E+00  0.000000000E+00 -1.360735997E+01  1.360735997E+01  0.000000000E+00  0.00000E+00  9.000E+00
      21     1     1     2   511   512  1.572472351E+01 -8.831457109E+00  9.663150609E+00  2.046064622E+01  3.769728732E-07  0.00000E+00  9.000E+00
       1     1     1     2   513     0 -2.990800962E+01  9.813049412E+00  9.437522064E+02  9.442770361E+02  3.300000131E-01  0.00000E+00  9.000E+00
      21     1     1     2   512   514  1.418328611E+01 -9.815923030E-01 -1.586893564E+00  1.430550103E+01  9.046858094E-07  0.00000E+00  9.000E+00
</event>
<event>
      5  10001  2.02673E+08  2.95070E+01 -1.00000E+00  1.53506E-01
      21    -1     0     0   514   513  0.000000000E+00  0.000000000E+00  5.913294773E+01  5.913294773E+01  0.000000000E+00  0.00000E+00  9.000E+00
      21    -1     0     0   515   514  0.000000000E+00  0.000000000E+00 -2.348128041E+01  2.348128041E+01  0.000000000E+00  0.00000E+00  9.000E+00
      -3     1     1     2     0   511  9.006437534E+00 -1.655746307E+01  3.670280942E+01  4.126271586E+01  5.000000000E-01  0.00000E+00  9.000E+00
       3     1     1     2   515     0 -2.331336664E+01  1.132962541E+01  1.204198212E+00  2.595329593E+01  5.000000000E-01  0.00000E+00  9.000E+00
      21     1     1     2   511   513  1.430692911E+01  5.227837662E+00 -2.255340318E+00  1.539821636E+01  1.264405455E-07  0.00000E+00  9.000E+00
</event>
<event>
      5  10001  2.02673E+08  3.07262E+01 -1.00000E+00  1.52287E-01
      -4    -1     0     0     0   515  0.000000000E+00  0.000000000E+00  6.451574266E+01  6.451574266E+01  0.000000000E+00  0.00000E+00  9.000E+00
      21    -1     0     0   513   514  0.000000000E+00  0.000000000E+00 -2.166565406E+02  2.166565406E+02  0.000000000E+00  0.00000E+00  9.000E+00
      -4     1     1     2     0   514  1.268151913E+01 -4.054553485E+01  2.183095900E+01  4.778704945E+01  1.500000000E+00  0.00000E+00  9.000E+00
      21     1     1     2   513   512 -3.032956745E+01  1.539563797E+01 -1.938368445E+02  1.967984518E+02  4.672030912E-06  0.00000E+00  9.000E+00
      21     1     1     2   512   515  1.764804832E+01  2.514989689E+01  1.986508751E+01  3.658678210E+01  3.371747881E-07  0.00000E+00  9.000E+00
</event>
<event>
      5  10001  2.02673E+08  1.14682E+01 -1.00000E+00  1.89068E-01
      21    -1     0     0   511   513  0.000000000E+00  0.000000000E+00  6.320526398E+01  6.320526398E+01  0.000000000E+00  0.00000E+00  9.000E+00
      21    -1     0     0   516   514  0.000000000E+00  0.000000000E+00 -1.435975354E+02  1.435975354E+02  0.000000000E+00  0.00000E+00  9.000E+00
      21     1     1     2   511   515  3.183658644E+01  1.160295403E+01  1.500030210E+01  3.705679211E+01  1.079486029E-06  0.00000E+00  9.000E+00
      21     1     1     2   516   513 -2.234776030E+01 -1.804359386E+01  3.133108899E+01  4.250447985E+01  5.840038640E-07  0.00000E+00  9.000E+00
      21     1     1     2   515   514 -9.488826141E+00  6.440639829E+00 -1.267236625E+02  1.272415275E+02  0.000000000E+00  0.00000E+00  9.000E+00
</event>
<event>
      5  10001  2.02673E+08  1.85220E+01 -1.00000E+00  1.69125E-01
       5    -1     0     0   515     0  0.000000000E+00  0.000000000E+00  2.154293248E+02  2.154293248E+02  0.000000000E+00  0.00000E+00  9.000E+00
      21    -1     0     0   511   514  0.000000000E+00  0.000000000E+00 -9.571121339E+01  9.571121339E+01  0.000000000E+00  0.00000E+00  9.000E+00
      21     1     1     2   515   514 -3.673275630E+01  1.759373651E+00  1.909659782E+01  4.143755337E+01  1.327458468E-06  0.00000E+00  9.000E+00
       5     1     1     2   512     0  2.903501979E+01  1.508074954E+01  1.826455964E+02  1.856149651E+02  4.800000191E+00  0.00000E+00  9.000E+00
      21     1     1     2   511   512  7.697736517E+00 -1.684012319E+01 -8.202408282E+01  8.408801971E+01  9.536743164E-07  0.00000E+00  9.000E+00
</event>
<event>
      5  10001  2.02673E+08  2.54018E+01 -1.00000E+00  1.58196E-01
       2    -1     0     0   511     0  0.000000000E+00  0.000000000E+00  3.049648035E+02  3.049648035E+02  0.000000000E+00  0.00000E+00  9.000E+00
      21    -1     0     0   513   512  0.000000000E+00  0.000000000E+00 -1.022666284E+01  1.022666284E+01  0.000000000E+00  0.00000E+00  9.000E+00
      21     1     1     2   511   514 -4.392522090E+00  1.021021386E+01  1.656090297E+01  1.994508021E+01  0.000000000E+00  0.00000E+00  9.000E+00
       2     1     1     2   513     0 -1.281425908E+00 -3.891690780E+01  2.548949053E+02  2.578520688E+02  3.300000131E-01  0.00000E+00  9.000E+00
      21     1     1     2   514   512  5.673947998E+00  2.870669394E+01  2.328233237E+01  3.739431726E+01  6.743495762E-07  0.00000E+00  9.000E+00
</event>
<event>
      5  10001  2.02673E+08  2.48172E+01 -1.00000E+00  1.58952E-01
      21    -1     0     0   515   516  0.000000000E+00  0.000000000E+00  7.772565140E+01  7.772565140E+01  0.000000000E+00  0.00000E+00  9.000E+00
      21    -1     0     0   516   511  0.000000000E+00  0.000000000E+00 -1.997998569E+01  1.997998569E+01  0.000000000E+00  0.00000E+00  9.000E+00
      -5     1     1     2     0   513  1.257471918E+01 -2.181373225E+01  8.216982321E+00  2.691693291E+01  4.800000191E+00  0.00000E+00  9.000E+00
       5     1     1     2   515     0 -2.827486473E+01  1.334671628E+01  3.845222949E+01  4.979173391E+01  4.800000191E+00  0.00000E+00  9.000E+00
      21     1     1     2   513   511  1.570014555E+01  8.467015967E+00  1.107645390E+01  2.099697027E+01  3.953724850E-07  0.00000E+00  9.000E+00
</event>
<event>
      5  10001  2.02673E+08  1.92527E+01 -1.00000E+00  1.67703E-01
      21    -1     0     0   513   514  0.000000000E+00  0.000000000E+00  2.977797499E+01  2.977797499E+01  0.000000000E+00  0.00000E+00  9.000E+00
       2    -1     0     0   514     0  0.000000000E+00  0.000000000E+00 -5.593933647E+01  5.593933647E+01  0.000000000E+00  0.00000E+00  9.000E+00
      21     1     1     2   513   512 -3.348640404E+01 -7.049722415E+00  6.500464339E+00  3.483236825E+01  1.192092896E-07  0.00000E+00  9.000E+00
      21     1     1     2   512   515  1.487476348E+01  1.260866264E+01 -1.461091023E+01  2.436628121E+01  7.348554138E-07  0.00000E+00  9.000E+00
       2     1     1     2   515     0  1.861164055E+01 -5.558940222E+00 -1.805091559E+01  2.651866200E+01  3.300000131E-01  0.00000E+00  9.000E+00
</event>
<event>
      5  10001  2.02673E+08  1.50349E+01 -1.00000E+00  1.77241E-01
      21    -1     0     0   511   512  0.000000000E+00  0.000000000E+00  4.193484064E+02  4.193484064E+02  0.000000000E+00  0.00000E+00  9.000E+00
      21    -1     0     0   514   516  0.000000000E+00  0.000000000E+00 -5.036127512E+00  5.036127512E+00  0.000000000E+00  0.00000E+00  9.000E+00
      21     1     1     2   511   516 -3.283805469E+00 -2.818721270E+01  4.449603543E+01  5.277498941E+01  1.066240300E-06  0.00000E+00  9.000E+00
       2     1     1     2   514     0 -7.696578475E+00  2.222576342E+01  2.676285282E+02  2.686603058E+02  3.300000131E-01  0.00000E+00  9.000E+00
      -2     1     1     2     0   512  1.098038394E+01  5.961449280E+00  1.021877152E+02  1.029492387E+02  3.300000131E-01  0.00000E+00  9.000E+00
</event>
<event>
      5  10001  2.02673E+08  2.10120E+01 -1.00000E+00  1.64579E-01
      21    -1     0     0   513   514  0.000000000E+00  0.000000000E+00  2.914463745E+02  2.914463745E+02  0.000000000E+00  0.00000E+00  9.000E+00
      21    -1     0     0   511   512  0.000000000E+00  0.000000000E+00 -2.390515247E+01  2.390515247E+01  0.000000000E+00  0.00000E+00  9.000E+00
      21     1     1     2   513   512 -1.918773192E+01  2.631941093E+01  8.021397513E+01  8.657460514E+01  9.536743164E-07  0.00000E+00  9.000E+00
      21     1     1     2   515   514  3.983460873E+01 -2.241919248E+01  1.993805552E+02  2.045532254E+02  4.672030912E-06  0.00000E+00  9.000E+00
      21     1     1     2   511   515 -2.064687681E+01 -3.900218456E+00 -1.205330831E+01  2.422369640E+01  4.768371582E-07  0.00000E+00  9.000E+00
</event>
<event>
      5  10001  2.02673E+08  2.40238E+01 -1.00000E+00  1.60019E-01
      21    -1     0     0   516   512  0.000000000E+00  0.000000000E+00  8.599812547E+01  8.599812547E+01  0.000000000E+00  0.00000E+00  9.000E+00
      21    -1     0     0   511   517  0.000000000E+00  0.000000000E+00 -2.723604694E+01  2.723604694E+01  0.000000000E+00  0.00000E+00  9.000E+00
      21     1     1     2   516   517  4.184009816E+01 -7.484345795E+00  4.080340183E+01  5.891966435E+01  9.536743164E-07  0.00000E+00  9.000E+00
      21     1     1     2   513   512 -2.326702878E+01 -6.257065214E-02 -5.037807810E+00  2.380626074E+01  4.339283639E-07  0.00000E+00  9.000E+00
      21     1     1     2   511   513 -1.857306939E+01  7.546916447E+00  2.299648451E+01  3.050824731E+01  3.371747881E-07  0.00000E+00  9.000E+00
</event>
<event>
      5  10001  2.02673E+08  3.96302E+01 -1.00000E+00  1.45059E-01
       1    -1     0     0   511     0  0.000000000E+00  0.000000000E+00  2.580107365E+02  2.580107365E+02  0.000000000E+00  0.00000E+00  9.000E+00
      21    -1     0     0   514   513  0.000000000E+00  0.000000000E+00 -4.308713031E+00  4.308713031E+00  0.000000000E+00  0.00000E+00  9.000E+00
      21     1     1     2   511   513  8.003297022E+00 -1.486797016E+01  4.860696287E+01  5.145625462E+01  6.743495762E-07  0.00000E+00  9.000E+00
       1     1     1     2   512     0 -1.312769506E+01  7.964132571E+00  2.005514437E+02  2.011386444E+02  3.300000131E-01  0.00000E+00  9.000E+00
      21     1     1     2   514   512  5.124398035E+00  6.903837593E+00  4.543616885E+00  9.724550536E+00  7.275674114E-07  0.00000E+00  9.000E+00
</event>
<event>
      5  10001  2.02673E+08  2.83109E+01 -1.00000E+00  1.54773E-01
      21    -1     0     0   514   512  0.000000000E+00  0.000000000E+00  1.656790878E+02  1.656790878E+02  0.000000000E+00  0.00000E+00  9.000E+00
      -1    -1     0     0     0   515  0.000000000E+00  0.000000000E+00 -8.424995876E+01  8.424995876E+01  0.000000000E+00  0.00000E+00  9.000E+00
      -1     1     1     2     0   511  1.372766974E+01  5.032903530E+00 -5.994850820E+01  6.170665742E+01  3.300000131E-01  0.00000E+00  9.000E+00
      21     1     1     2   514   515 -3.245761692E+01 -2.771275739E+01  1.512809361E+02  1.571859264E+02  0.000000000E+00  0.00000E+00  9.000E+00
      21     1     1     2   511   512  1.872994718E+01  2.267985386E+01 -9.903298879E+00  3.103646276E+01  7.444617746E-07  0.00000E+00  9.000E+00
</event>
<event>
      5  10001  2.02673E+08  1.52302E+01 -1.00000E+00  1.76715E-01
      21    -1     0     0   513   516  0.000000000E+00  0.000000000E+00  1.438749655E+01  1.438749655E+01  0.000000000E+00  0.00000E+00  9.000E+00
      21    -1     0     0   511   512  0.000000000E+00  0.000000000E+00 -1.021604126E+02  1.021604126E+02  0.000000000E+00  0.00000E+00  9.000E+00
      21     1     1     2   513   512 -3.629874539E+01  2.982446934E+00 -3.294675024E+01  4.911193601E+01  4.768371582E-07  0.00000E+00  9.000E+00
      -4     1     1     2     0   516  1.568075937E+01 -6.169228178E+00 -3.369417689E+01  3.770269416E+01  1.500000000E+00  0.00000E+00  9.000E+00
       4     1     1     2   511     0  2.061798603E+01  3.186781244E+00 -2.113198889E+01  2.973327895E+01  1.500000000E+00  0.00000E+00  9.000E+00
</event>
<event>
      5  10001  2.02673E+08  9.66304E+00 -1.00000E+00  1.97434E-01
      21    -1     0     0   514   512  0.000000000E+00  0.000000000E+00  7.579079658E+01  7.579079658E+01  0.000000000E+00  0.00000E+00  9.000E+00
      21    -1     0     0   511   515  0.000000000E+00  0.000000000E+00 -3.585066360E+01  3.585066360E+01  0.000000000E+00  0.00000E+00  9.000E+00
      21     1     1     2   514   515 -4.765906479E+01 -6.122928939E+00  4.191113825E-01  4.805260003E+01  7.194923494E-07  0.00000E+00  9.000E+00
      21     1     1     2   511   513  2.952671013E+01  2.099234922E+00  3.188409295E+01  4.350665215E+01  8.920806376E-07  0.00000E+00  9.000E+00
      21     1     1     2   513   512  1.813235466E+01  4.023694018E+00  7.636928649E+00  2.008220800E+01  2.665600750E-07  0.00000E+00  9.000E+00
</event>
<event>
      5  10001  2.02673E+08  2.92918E+01 -1.00000E+00  1.53728E-01
      21    -1     0     0   516   511  0.000000000E+00  0.000000000E+00  2.017522653E+01  2.017522653E+01  0.000000000E+00  0.00000E+00  9.000E+00
      21    -1     0     0   512   516  0.000000000E+00  0.000000000E+00 -8.696176958E+01  8.696176958E+01  0.000000000E+00  0.00000E+00  9.000E+00
      21     1     1     2   512   517 -2.555285694E+01  2.226764783E+01 -5.023211251E+01  6.059753926E+01  9.536743164E-07  0.00000E+00  9.000E+00
      21     1     1     2   517   514  1.891280877E+01 -9.325797242E+00 -2.248961277E+01  3.082932877E+01  3.371747881E-07  0.00000E+00  9.000E+00
      21     1     1     2   514   511  6.640048163E+00 -1.294185059E+01  5.935182234E+00  1.571012808E+01  3.371747881E-07  0.00000E+00  9.000E+00
</event>
<event>
      5  10001  2.02673E+08  1.52464E+01 -1.00000E+00  1.76672E-01
      21    -1     0     0   513   515  0.000000000E+00  0.000000000E+00  6.985378147E+01  6.985378147E+01  0.000000000E+00  0.00000E+00  9.000E+00
      21    -1     0     0   512   516  0.000000000E+00  0.000000000E+00 -4.172444508E+02  4.172444508E+02  0.000000000E+00  0.00000E+00  9.000E+00
      21     1     1     2   513   511  1.295226170E+01  2.505360562E+01 -1.800793325E+01  3.346236539E+01  0.000000000E+00  0.00000E+00  9.000E+00
      21     1     1     2   512   515 -1.879309605E+00 -3.553422115E+01  5.686850955E+01  6.708382857E+01  6.743495762E-07  0.00000E+00  9.000E+00
      21     1     1     2   511   516 -1.107295209E+01  1.048061553E+01 -3.862512456E+02  3.865520383E+02  5.394796609E-06  0.00000E+00  9.000E+00
</event>
<event>
      5  10001  2.02673E+08  1.31695E+01 -1.00000E+00  1.82829E-01
      21    -1     0     0   514   511  0.000000000E+00  0.000000000E+00  2.108735476E+02  2.108735476E+02  0.000000000E+00  0.00000E+00  9.000E+00
      21    -1     0     0   512   514  0.000000000E+00  0.000000000E+00 -4.312835360E+01  4.312835360E+01  0.000000000E+00  0.00000E+00  9.000E+00
      21     1     1     2   517   516 -2.059740412E+01  2.962970771E+01  4.762681753E+00  3.639856828E+01  9.272306672E-07  0.00000E+00  9.000E+00
      21     1     1     2   516   511  7.653089896E+00 -3.205494261E+01  1.871773912E+02  1.900564782E+02  2.697398305E-06  0.00000E+00  9.000E+00
      21     1     1     2   512   517  1.294431422E+01  2.425234905E+00 -2.419487897E+01  2.754685469E+01  4.768371582E-07  0.00000E+00  9.000E+00
</event>
<event>
      5  10001  2.02673E+08  9.89870E+00 -1.00000E+00  1.96211E-01
      21    -1     0     0   513   516  0.000000000E+00  0.000000000E+00  3.610800654E+01  3.610800654E+01  0.000000000E+00  0.00000E+00  9.000E+00
      21    -1     0     0   512   515  0.000000000E+00  0.000000000E+00 -1.776537414E+02  1.776537414E+02  0.000000000E+00  0.00000E+00  9.000E+00
      21     1     1     2   513   515  5.078580346E+01  1.796278259E+01  7.851150221E+00  5.443803772E+01  5.591411304E-07  0.00000E+00  9.000E+00
      21     1     1     2   511   516 -3.301130749E+01 -1.671834781E+01 -8.994619964E+01  9.726031259E+01  1.907348633E-06  0.00000E+00  9.000E+00
      21     1     1     2   512   511 -1.777449597E+01 -1.244434780E+00 -5.945068540E+01  6.206339758E+01  6.743495762E-07  0.00000E+00  9.000E+00
</event>
<event>
      5  10001  2.02673E+08  4.69667E+00 -1.00000E+00  2.47958E-01
      21    -1     0     0   511   514  0.000000000E+00  0.000000000E+00  3.074729280E+01  3.074729280E+01  0.000000000E+00  0.00000E+00  9.000E+00
       1    -1     0     0   513     0  0.000000000E+00  0.000000000E+00 -2.922828947E+02  2.922828947E+02  0.000000000E+00  0.00000E+00  9.000E+00
      21     1     1     2   511   512  3.453530230E+01  3.060874288E+01  9.612725864E+00  4.713795439E+01  1.322094978E-06  0.00000E+00  9.000E+00
       1     1     1     2   512     0 -3.742322656E+01 -2.690490526E+01 -2.391732646E+02  2.435740774E+02  3.300000131E-01  0.00000E+00  9.000E+00
      21     1     1     2   513   514  2.887924262E+00 -3.703837621E+00 -3.197506314E+01  3.231815561E+01  4.768371582E-07  0.00000E+00  9.000E+00
</event>
<event>
      5  10001  2.02673E+08  1.32418E+01 -1.00000E+00  1.82590E-01
      21    -1     0     0   515   512  0.000000000E+00  0.000000000E+00  6.542256595E+01  6.542256595E+01  0.000000000E+00  0.00000E+00  9.000E+00
      21    -1     0     0   513   514  0.000000000E+00  0.000000000E+00 -3.642511910E+01  3.642511910E+01  0.000000000E+00  0.00000E+00  9.000E+00
      21     1     1     2   515   514  1.759626917E+01  2.504627676E+01  4.769056329E+01  5.666863766E+01  6.743495762E-07  0.00000E+00  9.000E+00
      21     1     1     2   511   512 -1.704630911E+01 -1.560886433E+01 -2.481884186E+01  3.391442483E+01  9.536743164E-07  0.00000E+00  9.000E+00
      21     1     1     2   513   511 -5.499600527E-01 -9.437412432E+00  6.125725422E+00  1.126462256E+01  1.884864366E-07  0.00000E+00  9.000E+00
</event>
<event>
      5  10001  2.02673E+08  1.83833E+01 -1.00000E+00  1.69404E-01
       3    -1     0     0   513     0  0.000000000E+00  0.000000000E+00  6.410798345E+02  6.410798345E+02  0.000000000E+00  0.00000E+00  9.000E+00
      21    -1     0     0   516   511  0.000000000E+00  0.000000000E+00 -8.223330110E+00  8.223330110E+00  0.000000000E+00  0.00000E+00  9.000E+00
      21     1     1     2   513   512 -1.557211997E+01  1.535057534E+01  1.449277131E+01  2.623302315E+01  6.951036328E-07  0.00000E+00  9.000E+00
       3     1     1     2   516     0  5.940405544E+00 -2.873332436E+01  5.861291179E+02  5.868632594E+02  5.000000000E-01  0.00000E+00  9.000E+00
      21     1     1     2   512   511  9.631714426E+00  1.338274902E+01  3.223461510E+01  3.620688201E+01  6.743495762E-07  0.00000E+00  9.000E+00
</event>
<event>
      5  10001  2.02673E+08  9.71056E+00 -1.00000E+00  1.97184E-01
      21    -1     0     0   514   513  0.000000000E+00  0.000000000E+00  5.895010227E+00  5.895010227E+00  0.000000000E+00  0.00000E+00  9.000E+00
      21    -1     0     0   512   515  0.000000000E+00  0.000000000E+00 -6.745554276E+02  6.745554276E+02  0.000000000E+00  0.00000E+00  9.000E+00
      21     1     1     2   514   515 -1.929881164E+01  2.245979903E+01 -4.833326785E+02  4.842389543E+02  5.394796609E-06  0.00000E+00  9.000E+00
      21     1     1     2   512   511  2.817788433E+01 -1.852824760E+01 -1.831901773E+02  1.862684359E+02  3.814697266E-06  0.00000E+00  9.000E+00
      21     1     1     2   511   513 -8.879072690E+00 -3.931551431E+00 -2.137561522E+00  9.943047710E+00  1.397852826E-07  0.00000E+00  9.000E+00
</event>
<event>
      5  10001  2.02673E+08  1.17168E+01 -1.00000E+00  1.88072E-01
      21    -1     0     0   516   514  0.000000000E+00  0.000000000E+00  1.485953334E+01  1.485953334E+01  0.000000000E+00  0.00000E+00  9.000E+00
      21    -1     0     0   513   516  0.000000000E+00  0.000000000E+00 -2.362519940E+02  2.362519940E+02  0.000000000E+00  0.00000E+00  9.000E+00
      21     1     1     2   512   511  2.874137318E+01 -1.255973954E+01 -2.232314665E+01  3.849852551E+01  1.651812370E-06  0.00000E+00  9.000E+00
      21     1     1     2   513   512 -2.691606015E+01  2.413346789E+01 -1.975120366E+02  2.007931851E+02  0.000000000E+00  0.00000E+00  9.000E+00
      21     1     1     2   511   514 -1.825313033E+00 -1.157372835E+01 -1.557277414E+00  1.181981678E+01  4.204134935E-07  0.00000E+00  9.000E+00
</event>
<event>
      5  10001  2.02673E+08  3.66833E+00 -1.00000E+00  2.72538E-01
      21    -1     0     0   515   513  0.000000000E+00  0.000000000E+00  4.947081625E+00  4.947081625E+00  0.000000000E+00  0.00000E+00  9.000E+00
      21    -1     0     0   511   514  0.000000000E+00  0.000000000E+00 -4.389260007E+02  4.389260007E+02  0.000000000E+00  0.00000E+00  9.000E+00
      21     1     1     2   515   514  1.039338335E+01 -2.883947907E+01 -3.794341620E+02  3.806704891E+02  0.000000000E+00  0.00000E+00  9.000E+00
      21     1     1     2   511   512 -6.999766106E+00  2.361925516E+01 -3.584917652E+01  4.349746426E+01  1.261592536E-06  0.00000E+00  9.000E+00
      21     1     1     2   512   513 -3.393617249E+00  5.220223908E+00 -1.869558058E+01  1.970512900E+01  2.384185791E-07  0.00000E+00  9.000E+00
</event>
<event>
      5  10001  2.02673E+08  2.36881E+01 -1.00000E+00  1.60486E-01
       1    -1     0     0   514     0  0.000000000E+00  0.000000000E+00  1.748218117E+02  1.748218117E+02  0.000000000E+00  0.00000E+00  9.000E+00
       2    -1     0     0   511     0  0.000000000E+00  0.000000000E+00 -1.521013051E+02  1.521013051E+02  0.000000000E+00  0.00000E+00  9.000E+00
       1     1     1     2   512     0  2.596794134E+01 -3.933861232E+01  1.571371008E+02  1.640549839E+02  3.300000131E-01  0.00000E+00  9.000E+00
       2     1     1     2   514     0 -4.844509197E+01  3.186177317E+01 -1.242039043E+02  1.370723104E+02  3.300000131E-01  0.00000E+00  9.000E+00
      21     1     1     2   511   512  2.247715064E+01  7.476839150E+00 -1.021268986E+01  2.579582250E+01  2.920019320E-07  0.00000E+00  9.000E+00
</event>
<event>
      5  10001  2.02673E+08  8.16818E+00 -1.00000E+00  2.06431E-01
      21    -1     0     0   511   513  0.000000000E+00  0.000000000E+00  1.292922239E+02  1.292922239E+02  0.000000000E+00  0.00000E+00  9.000E+00
      21    -1     0     0   514   515  0.000000000E+00  0.000000000E+00 -3.520865732E+01  3.520865732E+01  0.000000000E+00  0.00000E+00  9.000E+00
      21     1     1     2   514   513 -9.953688510E+00  3.445235366E+01  8.187089810E+01  8.938056021E+01  9.536743164E-07  0.00000E+00  9.000E+00
       5     1     1     2   511     0  1.309703076E+01 -2.695151623E+01  3.743347996E+01  4.818943728E+01  4.800000191E+00  0.00000E+00  9.000E+00
      -5     1     1     2     0   515 -3.143342248E+00 -7.500837429E+00 -2.522081150E+01  2.693088371E+01  4.800000191E+00  0.00000E+00  9.000E+00
</event>
<event>
      5  10001  2.02673E+08  2.69399E+01 -1.00000E+00  1.56321E-01
      21    -1     0     0   512   514  0.000000000E+00  0.000000000E+00  8.429009043E+01  8.429009043E+01  0.000000000E+00  0.00000E+00  9.000E+00
       2    -1     0     0   516     0  0.000000000E+00  0.000000000E+00 -1.748247196E+02  1.748247196E+02  0.000000000E+00  0.00000E+00  9.000E+00
      21     1     1     2   515   514  5.777463502E+00 -2.036190595E+01  5.195094763E+01  5.609712344E+01  1.168007728E-06  0.00000E+00  9.000E+00
      21     1     1     2   516   515  2.649211591E+00  4.594996780E+01  1.088731971E+01  4.729642263E+01  7.052516679E-07  0.00000E+00  9.000E+00
       2     1     1     2   512     0 -8.426675093E+00 -2.558806185E+01 -1.533728965E+02  1.557212639E+02  3.300000131E-01  0.00000E+00  9.000E+00
</event>
<event>
      5  10001  2.02673E+08  2.27869E+01 -1.00000E+00  1.61787E-01
      21    -1     0     0   511   514  0.000000000E+00  0.000000000E+00  6.372649858E+02  6.372649858E+02  0.000000000E+00  0.00000E+00  9.000E+00
      21    -1     0     0   513   511  0.000000000E+00  0.000000000E+00 -1.319724545E+01  1.319724545E+01  0.000000000E+00  0.00000E+00  9.000E+00
      21     1     1     2   513   517 -4.961289476E+01  1.395857321E+01  5.062569383E+01  7.224432136E+01  9.536743164E-07  0.00000E+00  9.000E+00
      21     1     1     2   515   514  4.369003993E+01 -2.812551987E+01  5.206990668E+02  5.232851829E+02  0.000000000E+00  0.00000E+00  9.000E+00
      21     1     1     2   517   515  5.922854830E+00  1.416694666E+01  5.274297971E+01  5.493272700E+01  0.000000000E+00  0.00000E+00  9.000E+00
</event>
<event>
      5  10001  2.02673E+08  2.01089E+01 -1.00000E+00  1.66133E-01
      21    -1     0     0   515   513  0.000000000E+00  0.000000000E+00  9.638844278E+00  9.638844278E+00  0.000000000E+00  0.00000E+00  9.000E+00
       1    -1     0     0   513     0  0.000000000E+00  0.000000000E+00 -2.675425240E+02  2.675425240E+02  0.000000000E+00  0.00000E+00  9.000E+00
      21     1     1     2   515   512  2.683823015E+01 -1.268397230E+01 -2.310754525E+01  3.761824555E+01  5.840038640E-07  0.00000E+00  9.000E+00
       1     1     1     2   511     0 -1.611513319E+01  1.840793023E+01 -2.146069272E+02  2.159972026E+02  3.300000131E-01  0.00000E+00  9.000E+00
      21     1     1     2   512   511 -1.072309696E+01 -5.723957932E+00 -2.018920723E+01  2.356592013E+01  3.371747881E-07  0.00000E+00  9.000E+00
</event>
<event>
      5  10001  2.02673E+08  3.28421E+00 -1.00000E+00  2.85300E-01
      -2    -1     0     0     0   513  0.000000000E+00  0.000000000E+00  3.878610908E+00  3.878610908E+00  0.000000000E+00  0.00000E+00  9.000E+00
       2    -1     0     0   515     0  0.000000000E+00  0.000000000E+00 -6.677560861E+02  6.677560861E+02  0.000000000E+00  0.00000E+00  9.000E+00
      -2     1     1     2     0   514  9.962076947E+00 -4.064368290E+01 -2.306820697E+02  2.344471756E+02  3.300000131E-01  0.00000E+00  9.000E+00
       2     1     1     2   514     0 -1.168333571E+01  3.784676508E+01 -1.956498057E+02  1.996192208E+02  3.300000131E-01  0.00000E+00  9.000E+00
      21     1     1     2   515   513  1.721258760E+00  2.796917815E+00 -2.375455998E+02  2.375683006E+02  2.697398305E-06  0.00000E+00  9.000E+00
</event>
<event>
      5  10001  2.02673E+08  6.31152E+00 -1.00000E+00  2.22035E-01
      21    -1     0     0   511   514  0.000000000E+00  0.000000000E+00  5.524058906E+01  5.524058906E+01  0.000000000E+00  0.00000E+00  9.000E+00
      21    -1     0     0   513   512  0.000000000E+00  0.000000000E+00 -1.884857160E+01  1.884857160E+01  0.000000000E+00  0.00000E+00  9.000E+00
      21     1     1     2   511   512 -3.097214716E+01  2.123327318E+00  1.685182356E+01  3.532373673E+01  2.384185791E-07  0.00000E+00  9.000E+00
      21     1     1     2   516   514  2.652220388E+01  2.932954938E+00  1.651972029E+01  3.138360530E+01  2.384185791E-07  0.00000E+00  9.000E+00
      21     1     1     2   513   516  4.449943282E+00 -5.056282256E+00  3.020473610E+00  7.381818631E+00  4.214684851E-08  0.00000E+00  9.000E+00
</event>
<event>
      5  10001  2.02673E+08  1.99026E+01 -1.00000E+00  1.66502E-01
      21    -1     0     0   515   514  0.000000000E+00  0.000000000E+00  2.612668498E+01  2.612668498E+01  0.000000000E+00  0.00000E+00  9.000E+00
      21    -1     0     0   513   515  0.000000000E+00  0.000000000E+00 -9.883895030E+01  9.883895030E+01  0.000000000E+00  0.00000E+00  9.000E+00
      21     1     1     2   516   514 -1.360292461E+01  3.168587374E+01 -6.072780947E-01  3.448772157E+01  5.474022235E-07  0.00000E+00  9.000E+00
      21     1     1     2   513   511  2.049566476E+01 -3.062179781E+01 -7.449121369E+01  8.310660438E+01  1.348699152E-06  0.00000E+00  9.000E+00
      21     1     1     2   511   516 -6.892740151E+00 -1.064075932E+00  2.386226460E+00  7.371309320E+00  7.884953353E-08  0.00000E+00  9.000E+00
</event>
<event>
      5  10001  2.02673E+08  5.84416E+01 -1.00000E+00  1.35290E-01
      21    -1     0     0   512   511  0.000000000E+00  0.000000000E+00  1.081201102E+02  1.081201102E+02  0.000000000E+00  0.00000E+00  9.000E+00
      21    -1     0     0   517   512  0.000000000E+00  0.000000000E+00 -4.910235856E+01  4.910235856E+01  0.000000000E+00  0.00000E+00  9.000E+00
      21     1     1     2   513   511  3.018202142E+01  6.165295717E+00  7.007762647E+01  7.654958536E+01  9.536743164E-07  0.00000E+00  9.000E+00
      21     1     1     2   514   513 -3.099276865E+01  2.837710127E+01 -1.751057742E+01  4.552397068E+01  9.830249847E-07  0.00000E+00  9.000E+00
      21     1     1     2   517   514  8.107472269E-01 -3.454239698E+01  6.450702580E+00  3.514891270E+01  7.251217997E-07  0.00000E+00  9.000E+00
</event>
<event>
      5  10001  2.02673E+08  9.49854E+00 -1.00000E+00  1.98316E-01
      21    -1     0     0   513   514  0.000000000E+00  0.000000000E+00  2.346582784E+01  2.346582784E+01  0.000000000E+00  0.00000E+00  9.000E+00
      -1    -1     0     0     0   515  0.000000000E+00  0.000000000E+00 -6.240835850E+02  6.240835850E+02  0.000000000E+00  0.00000E+00  9.000E+00
      -1     1     1     2     0   514  6.225182013E+00  2.943823114E+01 -6.059161150E+02  6.066628468E+02  3.300000131E-01  0.00000E+00  9.000E+00
      21     1     1     2   511   515  2.310608357E+00 -2.826227963E+01  1.115111714E+01  3.047035895E+01  3.185365013E-06  0.00000E+00  9.000E+00
      21     1     1     2   513   511 -8.535790370E+00 -1.175951510E+00 -5.852759305E+00  1.041620712E+01  2.384185791E-07  0.00000E+00  9.000E+00
</event>
<event>
      5  10001  2.02673E+08  1.28349E+01 -1.00000E+00  1.83957E-01
       3    -1     0     0   512     0  0.000000000E+00  0.000000000E+00  1.262661506E+02  1.262661506E+02  0.000000000E+00  0.00000E+00  9.000E+00
      -4    -1     0     0     0   514  0.000000000E+00  0.000000000E+00 -5.914956675E+01  5.914956675E+01  0.000000000E+00  0.00000E+00  9.000E+00
      -4     1     1     2     0   513 -3.660686919E+01 -3.970757667E-01 -1.466912197E+01  3.946712152E+01  1.500000000E+00  0.00000E+00  9.000E+00
       3     1     1     2   513     0  2.522100231E+01  6.317325448E+00  1.110182214E+02  1.140232566E+02  5.000000000E-01  0.00000E+00  9.000E+00
      21     1     1     2   512   514  1.138586689E+01 -5.920249682E+00 -2.923251557E+01  3.192533927E+01  3.371747881E-07  0.00000E+00  9.000E+00
</event>
<event>
      5  10001  2.02673E+08  3.63687E+01 -1.00000E+00  1.47418E-01
      21    -1     0     0   511   513  0.000000000E+00  0.000000000E+00  8.300625420E+01  8.300625420E+01  0.000000000E+00  0.00000E+00  9.000E+00
      21    -1     0     0   516   515  0.000000000E+00  0.000000000E+00 -2.412627160E+01  2.412627160E+01  0.000000000E+00  0.00000E+00  9.000E+00
      21     1     1     2   511   515  8.414005670E+00  2.975720410E+01  3.446672774E+01  4.630596083E+01  0.000000000E+00  0.00000E+00  9.000E+00
      21     1     1     2   517   513  9.716047219E+00 -2.570255998E+01 -3.074900602E+00  2.764919849E+01  5.110033810E-07  0.00000E+00  9.000E+00
      21     1     1     2   516   517 -1.813005289E+01 -4.054644117E+00  2.748815545E+01  3.317736648E+01  4.768371582E-07  0.00000E+00  9.000E+00
</event>
<event>
      5  10001  2.02673E+08  1.54789E+01 -1.00000E+00  1.76060E-01
      21    -1     0     0   512   513  0.000000000E+00  0.000000000E+00  1.032656420E+02  1.032656420E+02  0.000000000E+00  0.00000E+00  9.000E+00
       2    -1     0     0   514     0  0.000000000E+00  0.000000000E+00 -2.460687318E+02  2.460687318E+02  0.000000000E+00  0.00000E+00  9.000E+00
      21     1     1     2   511   513 -2.292376318E+01  2.112677495E+01  8.347422273E+01  8.910547345E+01  1.907348633E-06  0.00000E+00  9.000E+00
       2     1     1     2   512     0  1.833386514E+01 -3.677708359E+01 -2.371131273E+02  2.406479348E+02  3.300000131E-01  0.00000E+00  9.000E+00
      21     1     1     2   514   511  4.589898035E+00  1.565030864E+01  1.083581480E+01  1.958096542E+01  6.529361695E-07  0.00000E+00  9.000E+00
</event>
<event>
      5  10001  2.02673E+08  6.04903E+00 -1.00000E+00  2.24846E-01
      21    -1     0     0   515   514  0.000000000E+00  0.000000000E+00  1.421715430E+02  1.421715430E+02  0.000000000E+00  0.00000E+00  9.000E+00
      21    -1     0     0   512   511  0.000000000E+00  0.000000000E+00 -3.013817822E+01  3.013817822E+01  0.000000000E+00  0.00000E+00  9.000E+00
      21     1     1     2   515   511 -4.241979898E+01  5.780887392E+00  1.148493660E+02  1.225693065E+02  1.348699152E-06  0.00000E+00  9.000E+00
      21     1     1     2   513   514  3.652250253E+01 -4.434521869E+00  7.719480654E+00  3.759186823E+01  7.348554138E-07  0.00000E+00  9.000E+00
      21     1     1     2   512   513  5.897296451E+00 -1.346365523E+00 -1.053548188E+01  1.214854658E+01  2.384185791E-07  0.00000E+00  9.000E+00
</event>
<event>
      5  10001  2.02673E+08  8.06430E+00 -1.00000E+00  2.07151E-01
      21    -1     0     0   511   514  0.000000000E+00  0.000000000E+00  3.281848180E+01  3.281848180E+01  0.000000000E+00  0.00000E+00  9.000E+00
      21    -1     0     0   516   513  0.000000000E+00  0.000000000E+00 -2.516734446E+02  2.516734446E+02  0.000000000E+00  0.00000E+00  9.000E+00
      21     1     1     2   511   513  2.181969397E+01 -2.885594878E+01 -1.741981323E+02  1.779150194E+02  2.697398305E-06  0.00000E+00  9.000E+00
       3     1     1     2   516     0 -1.407120664E+01  2.662206775E+01 -7.201076698E+01  7.805468537E+01  5.000000000E-01  0.00000E+00  9.000E+00
      -3     1     1     2     0   514 -7.748487324E+00  2.233881026E+00  2.735393654E+01  2.852222159E+01  5.000000000E-01  0.00000E+00  9.000E+00
</event>
<event>
      5  10001  2.02673E+08  3.20770E+01 -1.00000E+00  1.51013E-01
      21    -1     0     0   512   513  0.000000000E+00  0.000000000E+00  4.032877770E+01  4.032877770E+01  0.000000000E+00  0.00000E+00  9.000E+00
      21    -1     0     0   515   514  0.000000000E+00  0.000000000E+00 -6.301503017E+01  6.301503017E+01  0.000000000E+00  0.00000E+00  9.000E+00
      21     1     1     2   512   514 -3.974614629E+01 -1.553293398E+01  6.549824624E+00  4.317323692E+01  1.238859277E-06  0.00000E+00  9.000E+00
      21     1     1     2   515   511  1.158857394E+01  1.991802599E+01 -1.908065383E+01  2.991812420E+01  7.539457465E-07  0.00000E+00  9.000E+00
      21     1     1     2   511   513  2.815757236E+01 -4.385092014E+00 -1.015542326E+01  3.025244675E+01  4.616955931E-07  0.00000E+00  9.000E+00
</event>
<event>
      5  10001  2.02673E+08  9.21709E+00 -1.00000E+00  1.99880E-01
       4    -1     0     0   514     0  0.000000000E+00  0.000000000E+00  1.274076863E+02  1.274076863E+02  0.000000000E+00  0.00000E+00  9.000E+00
      21    -1     0     0   511   516  0.000000000E+00  0.000000000E+00 -1.274811058E+02  1.274811058E+02  0.000000000E+00  0.00000E+00  9.000E+00
      21     1     1     2   514   512  2.300573389E+01  1.630519069E+01 -1.186880479E+02  1.219917036E+02  2.336015456E-06  0.00000E+00  9.000E+00
       4     1     1     2   511     0 -2.849588857E+01 -1.100531166E+01  1.210759936E+02  1.248790566E+02  1.500000000E+00  0.00000E+00  9.000E+00
      21     1     1     2   512   516  5.490154683E+00 -5.299879035E+00 -2.461365282E+00  8.018031883E+00  1.032382731E-07  0.00000E+00  9.000E+00
</event>
<event>
      5  10001  2.02673E+08  1.74357E+01 -1.00000E+00  1.71396E-01
      21    -1     0     0   515   514  0.000000000E+00  0.000000000E+00  5.143200097E+01  5.143200097E+01  0.000000000E+00  0.00000E+00  9.000E+00
      -3    -1     0     0     0   513  0.000000000E+00  0.000000000E+00 -4.406087097E+01  4.406087097E+01  0.000000000E+00  0.00000E+00  9.000E+00
      -3     1     1     2     0   511 -3.556928864E+01 -1.459369622E+01 -1.670385686E+01  4.192158272E+01  5.000000000E-01  0.00000E+00  9.000E+00
      21     1     1     2   515   513  1.895044608E+01  1.986623841E+01  5.323496654E+00  2.796652377E+01  7.300048300E-07  0.00000E+00  9.000E+00
      21     1     1     2   511   514  1.661884256E+01 -5.272542182E+00  1.875149020E+01  2.560476545E+01  2.384185791E-07  0.00000E+00  9.000E+00
</event>
<event>
      5  10001  2.02673E+08  4.12900E+01 -1.00000E+00  1.43959E-01
      21    -1     0     0   511   514  0.000000000E+00  0.000000000E+00  4.333844346E+02  4.333844346E+02  0.000000000E+00  0.00000E+00  9.000E+00
       2    -1     0     0   514     0  0.000000000E+00  0.000000000E+00 -1.728322262E+02  1.728322262E+02  0.000000000E+00  0.00000E+00  9.000E+00
      21     1     1     2   511   512 -2.172053630E+01  3.835280351E+01  4.250295851E+02  4.273088666E+02  5.394796609E-06  0.00000E+00  9.000E+00
      21     1     1     2   512   513  1.782332177E+01  1.110332918E+00 -1.104726281E+02  1.119066807E+02  3.303624740E-06  0.00000E+00  9.000E+00
       2     1     1     2   513     0  3.897214527E+00 -3.946313643E+01 -5.400474872E+01  6.700111344E+01  3.300000131E-01  0.00000E+00  9.000E+00
</event>
<event>
      5  10001  2.02673E+08  1.39707E+01 -1.00000E+00  1.80293E-01
      21    -1     0     0   515   513  0.000000000E+00  0.000000000E+00  2.537261057E+02  2.537261057E+02  0.000000000E+00  0.00000E+00  9.000E+00
      21    -1     0     0   514   515  0.000000000E+00  0.000000000E+00 -1.887774407E+01  1.887774407E+01  0.000000000E+00  0.00000E+00  9.000E+00
      21     1     1     2   516   513  3.101245039E+01  4.801876474E+00  2.335934886E+02  2.356920619E+02  3.814697266E-06  0.00000E+00  9.000E+00
      21     1     1     2   514   511 -1.725135814E+01  4.835413457E+00 -5.594036175E+00  1.876922538E+01  2.308477966E-07  0.00000E+00  9.000E+00
      21     1     1     2   511   516 -1.376109225E+01 -9.637289931E+00  6.848909162E+00  1.814256250E+01  1.460009660E-07  0.00000E+00  9.000E+00
</event>
<event>
      5  10001  2.02673E+08  1.71197E+01 -1.00000E+00  1.72096E-01
      21    -1     0     0   512   513  0.000000000E+00  0.000000000E+00  1.762529030E+01  1.762529030E+01  0.000000000E+00  0.00000E+00  9.000E+00
      21    -1     0     0   517   512  0.000000000E+00  0.000000000E+00 -1.536899056E+02  1.536899056E+02  0.000000000E+00  0.00000E+00  9.000E+00
      21     1     1     2   517   516 -4.374707313E+01 -1.048305313E+01 -1.039174938E+02  1.132366828E+02  1.348699152E-06  0.00000E+00  9.000E+00
      21     1     1     2   516   514  1.882566339E+01  4.686079041E+00 -3.579434579E+00  1.972757691E+01  7.896209538E-07  0.00000E+00  9.000E+00
      21     1     1     2   514   513  2.492140974E+01  5.796974089E+00 -2.856768691E+01  3.835093620E+01  4.768371582E-07  0.00000E+00  9.000E+00
</event>
<event>
      5  10001  2.02673E+08  3.50431E+01 -1.00000E+00  1.48463E-01
      21    -1     0     0   511   516  0.000000000E+00  0.000000000E+00  2.027971914E+01  2.027971914E+01  0.000000000E+00  0.00000E+00  9.000E+00
      21    -1     0     0   515   513  0.000000000E+00  0.000000000E+00 -1.923497588E+02  1.923497588E+02  0.000000000E+00  0.00000E+00  9.000E+00
      21     1     1     2   511   513  2.540933168E+01 -3.229881938E+01 -1.535435175E+02  1.589479778E+02  1.907348633E-06  0.00000E+00  9.000E+00
      21     1     1     2   515   512 -1.981177544E+01  1.678163586E+01 -2.492181716E+01  3.598925838E+01  6.743495762E-07  0.00000E+00  9.000E+00
      21     1     1     2   512   516 -5.597556241E+00  1.551718352E+01  6.395295021E+00  1.769224177E+01  7.817075878E-07  0.00000E+00  9.000E+00
</event>
<event>
      5  10001  2.02673E+08  1.53653E+01 -1.00000E+00  1.76358E-01
      21    -1     0     0   512   514  0.000000000E+00  0.000000000E+00  3.004387807E+01  3.004387807E+01  0.000000000E+00  0.00000E+00  9.000E+00
       4    -1     0     0   515     0  0.000000000E+00  0.000000000E+00 -6.938153728E+01  6.938153728E+01  0.000000000E+00  0.00000E+00  9.000E+00
      21     1     1     2   515   511 -1.512793177E+01 -1.448240404E+01  2.752731557E+00  2.112278101E+01  1.931411236E-07  0.00000E+00  9.000E+00
       4     1     1     2   512     0  2.197039270E+01  3.624926460E+01 -3.300718300E+01  5.374412963E+01  1.500000000E+00  0.00000E+00  9.000E+00
      21     1     1     2   511   514 -6.842460930E+00 -2.176686056E+01 -9.083207767E+00  2.455850471E+01  6.078504936E-07  0.00000E+00  9.000E+00
</event>
<event>
      5  10001  2.02673E+08  1.62852E+01 -1.00000E+00  1.74039E-01
      21    -1     0     0   513   511  0.000000000E+00  0.000000000E+00  1.391624825E+01  1.391624825E+01  0.000000000E+00  0.00000E+00  9.000E+00
      21    -1     0     0   514   513  0.000000000E+00  0.000000000E+00 -9.646533064E+01  9.646533064E+01  0.000000000E+00  0.00000E+00  9.000E+00
      21     1     1     2   514   515  2.017144091E+01 -2.489476433E+01 -6.175707299E+01  6.957422212E+01  1.168007728E-06  0.00000E+00  9.000E+00
      21     1     1     2   515   512 -8.714086958E+00  6.966218483E+00 -1.419088755E-01  1.115722410E+01  3.617945475E-07  0.00000E+00  9.000E+00
      21     1     1     2   512   511 -1.145735395E+01  1.792854585E+01 -2.065010052E+01  2.965013267E+01  8.596304120E-07  0.00000E+00  9.000E+00
</event>
<event>
      5  10001  2.02673E+08  4.56499E+01 -1.00000E+00  1.41339E-01
       1    -1     0     0   512     0  0.000000000E+00  0.000000000E+00  1.407627063E+03  1.407627063E+03  0.000000000E+00  0.00000E+00  9.000E+00
      -2    -1     0     0     0   512  0.000000000E+00  0.000000000E+00 -5.454716861E+00  5.454716861E+00  0.000000000E+00  0.00000E+00  9.000E+00
      21     1     1     2   513   511 -2.293482152E+01  1.216119702E+01  7.494757490E+01  7.931607488E+01  9.536743164E-07  0.00000E+00  9.000E+00
       1     1     1     2   511     0  3.029363293E+01  1.095439646E+01  1.282333435E+03  1.282738029E+03  3.300000131E-01  0.00000E+00  9.000E+00
      -2     1     1     2     0   513 -7.358811408E+00 -2.311559349E+01  4.489133591E+01  5.102767589E+01  3.300000131E-01  0.00000E+00  9.000E+00
</event>
<event>
      5  10001  2.02673E+08  2.00683E+01 -1.00000E+00  1.66205E-01
      21    -1     0     0   514   511  0.000000000E+00  0.000000000E+00  4.556918250E+01  4.556918250E+01  0.000000000E+00  0.00000E+00  9.000E+00
      21    -1     0     0   515   514  0.000000000E+00  0.000000000E+00 -1.456577780E+02  1.456577780E+02  0.000000000E+00  0.00000E+00  9.000E+00
      21     1     1     2   515   513 -2.461699649E+01  2.244457396E+01 -1.352345333E+02  1.392771855E+02  0.000000000E+00  0.00000E+00  9.000E+00
      21     1     1     2   513   512  1.472130534E+01 -1.850468666E+01  1.210145912E+01  2.656286077E+01  3.371747881E-07  0.00000E+00  9.000E+00
      21     1     1     2   512   511  9.895691147E+00 -3.939887292E+00  2.304447867E+01  2.538691420E+01  7.539457465E-07  0.00000E+00  9.000E+00
</event>
<event>
      5  10001  2.02673E+08  2.65041E+01 -1.00000E+00  1.56837E-01
      21    -1     0     0   516   513  0.000000000E+00  0.000000000E+00  2.409860940E+01  2.409860940E+01  0.000000000E+00  0.00000E+00  9.000E+00
      21    -1     0     0   515   511  0.000000000E+00  0.000000000E+00 -4.784453448E+01  4.784453448E+01  0.000000000E+00  0.00000E+00  9.000E+00
      21     1     1     2   516   511 -2.813061952E+01 -6.518161341E+00 -1.895315213E+01  3.454041340E+01  6.307962682E-07  0.00000E+00  9.000E+00
      21     1     1     2   515   514  1.471572084E+01 -7.439693008E+00 -7.008563103E+00  1.791707087E+01  1.884864366E-07  0.00000E+00  9.000E+00
      21     1     1     2   514   513  1.341489868E+01  1.395785435E+01  2.215790151E+00  1.948565962E+01  5.591411304E-07  0.00000E+00  9.000E+00
</event>
<event>
      5  10001  2.02673E+08  1.90113E+01 -1.00000E+00  1.68164E-01
      21    -1     0     0   512   511  0.000000000E+00  0.000000000E+00  2.124886643E+02  2.124886643E+02  0.000000000E+00  0.00000E+00  9.000E+00
      21    -1     0     0   517   513  0.000000000E+00  0.000000000E+00 -8.984541766E+00  8.984541766E+00  0.000000000E+00  0.00000E+00  9.000E+00
      21     1     1     2   512   513  2.445691813E+01 -1.205524183E+01  1.470350173E+02  1.495418538E+02  0.000000000E+00  0.00000E+00  9.000E+00
      21     1     1     2   517   515 -1.942736072E+01  2.221296150E+01  2.566907661E+01  3.911188435E+01  8.920806376E-07  0.00000E+00  9.000E+00
      21     1     1     2   515   511 -5.029557409E+00 -1.015771967E+01  3.080002852E+01  3.281946791E+01  3.371747881E-07  0.00000E+00  9.000E+00
</event>
<event>
      5  10001  2.02673E+08  4.92006E+00 -1.00000E+00  2.43847E-01
      21    -1     0     0   514   512  0.000000000E+00  0.000000000E+00  3.968570599E+01  3.968570599E+01  0.000000000E+00  0.00000E+00  9.000E+00
      21    -1     0     0   511   514  0.000000000E+00  0.000000000E+00 -1.207296938E+02  1.207296938E+02  0.000000000E+00  0.00000E+00  9.000E+00
      21     1     1     2   511   516 -2.758518361E+01 -2.003878749E+01 -6.198862745E+01  7.074662743E+01  1.168007728E-06  0.00000E+00  9.000E+00
      21     1     1     2   516   513  2.669311056E+01  2.487729902E+01 -4.800822345E+01  6.030084308E+01  1.348699152E-06  0.00000E+00  9.000E+00
      21     1     1     2   513   512  8.920730520E-01 -4.838511537E+00  2.895286310E+01  2.936792927E+01  0.000000000E+00  0.00000E+00  9.000E+00
</event>
<event>
      5  10001  2.02673E+08  1.71630E+01 -1.00000E+00  1.71999E-01
       2    -1     0     0   511     0  0.000000000E+00  0.000000000E+00  4.078432751E+02  4.078432751E+02  0.000000000E+00  0.00000E+00  9.000E+00
      -1    -1     0     0     0   515  0.000000000E+00  0.000000000E+00 -8.301719036E+00  8.301719036E+00  0.000000000E+00  0.00000E+00  9.000E+00
      -1     1     1     2     0   512 -8.007291100E+00 -2.587247921E+01  2.397967830E+01  3.617507101E+01  3.300000131E-01  0.00000E+00  9.000E+00
      21     1     1     2   511   515  2.493867781E+01  2.867864382E+01  3.045794242E+02  3.069414080E+02  5.394796609E-06  0.00000E+00  9.000E+00
       2     1     1     2   512     0 -1.693138671E+01 -2.806164605E+00  7.098245349E+01  7.302851511E+01  3.300000131E-01  0.00000E+00  9.000E+00
</event>
<event>
      5  10001  2.02673E+08  3.94787E+01 -1.00000E+00  1.45163E-01
      -2    -1     0     0     0   513  0.000000000E+00  0.000000000E+00  4.432353287E+01  4.432353287E+01  0.000000000E+00  0.00000E+00  9.000E+00
       1    -1     0     0   513     0  0.000000000E+00  0.000000000E+00 -1.943155267E+02  1.943155267E+02  0.000000000E+00  0.00000E+00  9.000E+00
      -2     1     1     2     0   514  3.721221980E+01 -2.103869338E+01  2.474577171E+01  4.939471671E+01  3.300000131E-01  0.00000E+00  9.000E+00
      21     1     1     2   514   511 -2.148809251E+01 -6.090801052E+00 -1.426136683E+02  1.443519808E+02  2.697398305E-06  0.00000E+00  9.000E+00
       1     1     1     2   511     0 -1.572412729E+01  2.712949443E+01 -3.212409725E+01  4.489236206E+01  3.300000131E-01  0.00000E+00  9.000E+00
</event>
<event>
      5  10001  2.02673E+08  9.33193E+00 -1.00000E+00  1.99233E-01
      21    -1     0     0   512   514  0.000000000E+00  0.000000000E+00  6.338257592E+01  6.338257592E+01  0.000000000E+00  0.00000E+00  9.000E+00
      21    -1     0     0   513   515  0.000000000E+00  0.000000000E+00 -1.995382673E+01  1.995382673E+01  0.000000000E+00  0.00000E+00  9.000E+00
      21     1     1     2   512   515 -2.448120640E+01 -2.361578362E+01  1.260358476E+01  3.627512993E+01  7.907449699E-07  0.00000E+00  9.000E+00
      21     1     1     2   516   514  1.314436058E+01  1.515150349E+01  1.153419202E+01  2.313827691E+01  1.685873940E-07  0.00000E+00  9.000E+00
      21     1     1     2   513   516  1.133684582E+01  8.464280138E+00  1.929097241E+01  2.392299580E+01  2.384185791E-07  0.00000E+00  9.000E+00
</event>
<event>
      5  10001  2.02673E+08  7.62000E+00 -1.00000E+00  2.10405E-01
       1    -1     0     0   512     0  0.000000000E+00  0.000000000E+00  1.284143881E+02  1.284143881E+02  0.000000000E+00  0.00000E+00  9.000E+00
      21    -1     0     0   516   512  0.000000000E+00  0.000000000E+00 -8.758942969E+00  8.758942969E+00  0.000000000E+00  0.00000E+00  9.000E+00
      21     1     1     2   516   514  9.192381882E+00  2.023639257E+00  1.626571006E+01  1.879277320E+01  3.371747881E-07  0.00000E+00  9.000E+00
       1     1     1     2   511     0 -3.329545663E+01  2.595934532E-01  6.402824760E+01  7.216910843E+01  3.300000131E-01  0.00000E+00  9.000E+00
      21     1     1     2   514   511  2.410307475E+01 -2.283232710E+00  3.936148748E+01  4.621144945E+01  9.536743164E-07  0.00000E+00  9.000E+00
</event>
<event>
      5  10001  2.02673E+08  2.20606E+01 -1.00000E+00  1.62890E-01
      21    -1     0     0   515   511  0.000000000E+00  0.000000000E+00  3.589046357E+01  3.589046357E+01  0.000000000E+00  0.00000E+00  9.000E+00
      -1    -1     0     0     0   513  0.000000000E+00  0.000000000E+00 -3.221995429E+02  3.221995429E+02  0.000000000E+00  0.00000E+00  9.000E+00
      -1     1     1     2     0   511 -3.283051746E+01 -3.664190186E+01 -2.885086423E+02  2.926735681E+02  3.300000131E-01  0.00000E+00  9.000E+00
      21     1     1     2   515   512  2.022869093E+01  1.818773984E+01  2.244170017E+01  3.526504961E+01  5.331201500E-07  0.00000E+00  9.000E+00
      21     1     1     2   512   513  1.260182653E+01  1.845416202E+01 -2.024213715E+01  3.015138876E+01  5.840038640E-07  0.00000E+00  9.000E+00
</event>
<event>
      5  10001  2.02673E+08  1.51627E+01 -1.00000E+00  1.76896E-01
      21    -1     0     0   514   511  0.000000000E+00  0.000000000E+00  1.342112544E+01  1.342112544E+01  0.000000000E+00  0.00000E+00  9.000E+00
       1    -1     0     0   511     0  0.000000000E+00  0.000000000E+00 -3.851541949E+02  3.851541949E+02  0.000000000E+00  0.00000E+00  9.000E+00
      21     1     1     2   515   512  1.421909373E+01  2.767743561E+01 -8.899566540E+00  3.236395144E+01  9.973764736E-07  0.00000E+00  9.000E+00
       1     1     1     2   512     0 -4.059615062E+00 -2.950517760E+01 -3.381108420E+02  3.394202209E+02  3.300000131E-01  0.00000E+00  9.000E+00
      21     1     1     2   514   515 -1.015947867E+01  1.827741991E+00 -2.472266092E+01  2.679114798E+01  3.371747881E-07  0.00000E+00  9.000E+00
</event>
<event>
      5  10001  2.02673E+08  1.00960E+01 -1.00000E+00  1.95221E-01
      -5    -1     0     0     0   513  0.000000000E+00  0.000000000E+00  3.683655160E+01  3.683655160E+01  0.000000000E+00  0.00000E+00  9.000E+00
      21    -1     0     0   513   514  0.000000000E+00  0.000000000E+00 -3.024654374E+02  3.024654374E+02  0.000000000E+00  0.00000E+00  9.000E+00
      -5     1     1     2     0   511  2.652653492E+01  1.921955193E+01  2.800953731E+01  4.336614363E+01  4.800000191E+00  0.00000E+00  9.000E+00
      21     1     1     2   512   514 -1.694640273E+01 -7.647548630E+00 -2.197837262E+02  2.205687010E+02  4.672030912E-06  0.00000E+00  9.000E+00
      21     1     1     2   511   512 -9.580132186E+00 -1.157200330E+01 -7.385469695E+01  7.536714439E+01  9.536743164E-07  0.00000E+00  9.000E+00
</event>
<event>
      5  10001  2.02673E+08  2.62120E+01 -1.00000E+00  1.57189E-01
      -1    -1     0     0     0   515  0.000000000E+00  0.000000000E+00  2.336111736E+02  2.336111736E+02  0.000000000E+00  0.00000E+00  9.000E+00
      21    -1     0     0   515   516  0.000000000E+00  0.000000000E+00 -1.008920021E+01  1.008920021E+01  0.000000000E+00  0.00000E+00  9.000E+00
      -1     1     1     2     0   513 -1.136217383E+01 -2.843417970E+01  1.654549816E+02  1.682648549E+02  3.300000131E-01  0.00000E+00  9.000E+00
      21     1     1     2   514   516  6.531970991E+00  3.481936906E+01  5.733338406E+01  6.739563810E+01  9.536743164E-07  0.00000E+00  9.000E+00
      21     1     1     2   513   514  4.830202835E+00 -6.385189357E+00  7.336077184E-01  8.039880772E+00  4.261836304E-07  0.00000E+00  9.000E+00
</event>
<event>
      5  10001  2.02673E+08  1.32321E+01 -1.00000E+00  1.82622E-01
      21    -1     0     0   511   515  0.000000000E+00  0.000000000E+00  2.566983606E+02  2.566983606E+02  0.000000000E+00  0.00000E+00  9.000E+00
      21    -1     0     0   516   511  0.000000000E+00  0.000000000E+00 -1.128831710E+02  1.128831710E+02  0.000000000E+00  0.00000E+00  9.000E+00
      21     1     1     2   514   515  2.544043702E+01  2.618885800E+01  2.354953957E+02  2.383089455E+02  3.814697266E-06  0.00000E+00  9.000E+00
      21     1     1     2   512   514 -1.787989377E+01 -3.704821236E+01 -2.604522123E+00  4.121946356E+01  1.507596954E-06  0.00000E+00  9.000E+00
      21     1     1     2   516   512 -7.560543245E+00  1.085935436E+01 -8.907568402E+01  9.005312252E+01  1.651812370E-06  0.00000E+00  9.000E+00
</event>
<event>
      5  10001  2.02673E+08  4.77510E+01 -1.00000E+00  1.40196E-01
      21    -1     0     0   513   514  0.000000000E+00  0.000000000E+00  4.090950536E+00  4.090950536E+00  0.000000000E+00  0.00000E+00  9.000E+00
      21    -1     0     0   516   513  0.000000000E+00  0.000000000E+00 -2.921784142E+02  2.921784142E+02  0.000000000E+00  0.00000E+00  9.000E+00
      21     1     1     2   512   514 -1.416350066E+01 -4.040334550E+00 -3.572943295E+01  3.864610502E+01  4.768371582E-07  0.00000E+00  9.000E+00
      21     1     1     2   511   512  1.807835748E+01  1.392235684E+01 -4.971188330E+01  5.469854084E+01  6.743495762E-07  0.00000E+00  9.000E+00
      21     1     1     2   516   511 -3.914856817E+00 -9.882022293E+00 -2.026461475E+02  2.029247189E+02  2.697398305E-06  0.00000E+00  9.000E+00
</event>
<event>
      5  10001  2.02673E+08  3.89157E+01 -1.00000E+00  1.45553E-01
      21    -1     0     0   515   511  0.000000000E+00  0.000000000E+00  1.148082854E+02  1.148082854E+02  0.000000000E+00  0.00000E+00  9.000E+00
      21    -1     0     0   514   517  0.000000000E+00  0.000000000E+00 -1.879545387E+01  1.879545387E+01  0.000000000E+00  0.00000E+00  9.000E+00
      21     1     1     2   515   517 -2.143941800E-01  3.888689464E+01  2.031834488E+01  4.387563878E+01  5.331201500E-07  0.00000E+00  9.000E+00
      21     1     1     2   514   512  1.563163224E+00 -1.587773323E+01  7.282850257E+00  1.753812418E+01  3.475518164E-07  0.00000E+00  9.000E+00
      21     1     1     2   512   511 -1.348769044E+00 -2.300916140E+01  6.841163639E+01  7.218997631E+01  9.536743164E-07  0.00000E+00  9.000E+00
</event>
<event>
      5  10001  2.02673E+08  6.45628E+00 -1.00000E+00  2.20564E-01
       2    -1     0     0   512     0  0.000000000E+00  0.000000000E+00  1.808748514E+01  1.808748514E+01  0.000000000E+00  0.00000E+00  9.000E+00
       2    -1     0     0   513     0  0.000000000E+00  0.000000000E+00 -2.097330375E+02  2.097330375E+02  0.000000000E+00  0.00000E+00  9.000E+00
       2     1     1     2   512     0 -4.771582963E+01 -1.583567307E+01 -1.313887784E+02  1.406793835E+02  3.300000131E-01  0.00000E+00  9.000E+00
       2     1     1     2   511     0  5.110263919E+01  2.133219753E+01 -4.798597288E+01  7.327554078E+01  3.300000131E-01  0.00000E+00  9.000E+00
      21     1     1     2   513   511 -3.386809561E+00 -5.496524455E+00 -1.227080104E+01  1.386559837E+01  0.000000000E+00  0.00000E+00  9.000E+00
</event>
<event>
      5  10001  2.02673E+08  1.56905E+01 -1.00000E+00  1.75515E-01
      21    -1     0     0   514   511  0.000000000E+00  0.000000000E+00  1.050031038E+02  1.050031038E+02  0.000000000E+00  0.00000E+00  9.000E+00
      21    -1     0     0   513   515  0.000000000E+00  0.000000000E+00 -4.194536315E+01  4.194536315E+01  0.000000000E+00  0.00000E+00  9.000E+00
      21     1     1     2   514   515  1.143535342E+01  3.526862105E+01  8.585856959E+01  9.352185258E+01  1.651812370E-06  0.00000E+00  9.000E+00
      21     1     1     2   512   511 -1.370529319E+01 -2.119893502E+01 -2.850505506E+01  3.807582003E+01  3.371747881E-07  0.00000E+00  9.000E+00
      21     1     1     2   513   512  2.269939774E+00 -1.406968603E+01  5.704226164E+00  1.535079437E+01  1.685873940E-07  0.00000E+00  9.000E+00
</event>
<event>
      5  10001  2.02673E+08  1.89849E+01 -1.00000E+00  1.68215E-01
      21    -1     0     0   516   512  0.000000000E+00  0.000000000E+00  5.825309489E+01  5.825309489E+01  0.000000000E+00  0.00000E+00  9.000E+00
      21    -1     0     0   513   517  0.000000000E+00  0.000000000E+00 -1.913739434E+01  1.913739434E+01  0.000000000E+00  0.00000E+00  9.000E+00
      21     1     1     2   516   517  2.467610469E+01 -1.588103357E+01  2.347278268E+01  3.757777131E+01  3.371747881E-07  0.00000E+00  9.000E+00
      21     1     1     2   513   511 -1.908181858E+01  6.458424549E+00  1.965315566E+01  2.814380172E+01  3.371747881E-07  0.00000E+00  9.000E+00
      21     1     1     2   511   512 -5.594286116E+00  9.422609016E+00 -4.010237802E+00  1.166891619E+01  1.976862425E-07  0.00000E+00  9.000E+00
</event>
<event>
      5  10001  2.02673E+08  6.30728E+00 -1.00000E+00  2.22079E-01
      21    -1     0     0   511   514  0.000000000E+00  0.000000000E+00  2.353631474E+01  2.353631474E+01  0.000000000E+00  0.00000E+00  9.000E+00
       2    -1     0     0   513     0  0.000000000E+00  0.000000000E+00 -1.143749495E+02  1.143749495E+02  0.000000000E+00  0.00000E+00  9.000E+00
      21     1     1     2   513   512 -3.286998282E+01 -2.170245175E+01 -1.453184902E+01  4.198341123E+01  4.129530925E-07  0.00000E+00  9.000E+00
       2     1     1     2   511     0  3.571418296E+01  1.607293588E+01 -7.967257035E+01  8.877876716E+01  3.300000131E-01  0.00000E+00  9.000E+00
      21     1     1     2   512   514 -2.844200138E+00  5.629515865E+00  3.365784564E+00  7.149085888E+00  1.976862425E-07  0.00000E+00  9.000E+00
</event>
<event>
      5  10001  2.02673E+08  7.21509E+00 -1.00000E+00  2.13642E-01
       2    -1     0     0   511     0  0.000000000E+00  0.000000000E+00  8.001689275E+02  8.001689275E+02  0.000000000E+00  0.00000E+00  9.000E+00
      -2    -1     0     0     0   515  0.000000000E+00  0.000000000E+00 -2.192358628E+01  2.192358628E+01  0.000000000E+00  0.00000E+00  9.000E+00
      -2     1     1     2     0   513  1.401061045E+01 -3.128760568E+01 -7.219302135E+00  3.503482121E+01  3.300000131E-01  0.00000E+00  9.000E+00
       2     1     1     2   513     0 -6.960874578E+00  3.282333336E+01  7.551928907E+02  7.559379843E+02  3.300000131E-01  0.00000E+00  9.000E+00
      21     1     1     2   511   515 -7.049735876E+00 -1.535727687E+00  3.027175262E+01  3.111970826E+01  3.371747881E-07  0.00000E+00  9.000E+00
</event>
<event>
      5  10001  2.02673E+08  1.06619E+01 -1.00000E+00  1.92537E-01
       1    -1     0     0   513     0  0.000000000E+00  0.000000000E+00  6.337432261E+02  6.337432261E+02  0.000000000E+00  0.00000E+00  9.000E+00
      21    -1     0     0   511   514  0.000000000E+00  0.000000000E+00 -1.384953199E+01  1.384953199E+01  0.000000000E+00  0.00000E+00  9.000E+00
      21     1     1     2   513   512  4.034786797E+00  3.459887745E+01  1.305369130E+02  1.351045798E+02  1.907348633E-06  0.00000E+00  9.000E+00
       1     1     1     2   511     0  3.051389094E+00 -2.663263267E+01  4.980257427E+02  4.987467869E+02  3.300000131E-01  0.00000E+00  9.000E+00
      21     1     1     2   512   514 -7.086175892E+00 -7.966244780E+00 -8.668961579E+00  1.374139147E+01  7.052516679E-07  0.00000E+00  9.000E+00
</event>
<event>
      5  10001  2.02673E+08  5.54792E+01 -1.00000E+00  1.36519E-01
      21    -1     0     0   515   511  0.000000000E+00  0.000000000E+00  8.799008430E+02  8.799008430E+02  0.000000000E+00  0.00000E+00  9.000E+00
      -2    -1     0     0     0   514  0.000000000E+00  0.000000000E+00 -1.184448785E+00  1.184448785E+00  0.000000000E+00  0.00000E+00  9.000E+00
      21     1     1     2   513   511 -6.499899418E+00  5.166396544E+00  7.717384229E+02  7.717830872E+02  1.078959322E-05  0.00000E+00  9.000E+00
      21     1     1     2   515   514  4.591398149E+00  5.778205320E+00  7.660087093E+01  7.695558473E+01  1.348699152E-06  0.00000E+00  9.000E+00
      -2     1     1     2     0   513  1.908501270E+00 -1.094460186E+01  3.037710048E+01  3.234661992E+01  3.300000131E-01  0.00000E+00  9.000E+00
</event>
<event>
      5  10001  2.02673E+08  4.50888E+01 -1.00000E+00  1.41657E-01
      21    -1     0     0   512   514  0.000000000E+00  0.000000000E+00  4.281397991E+01  4.281397991E+01  0.000000000E+00  0.00000E+00  9.000E+00
      21    -1     0     0   511   513  0.000000000E+00  0.000000000E+00 -5.571396595E+02  5.571396595E+02  0.000000000E+00  0.00000E+00  9.000E+00
      21     1     1     2   512   513  1.347281164E+01  1.713748682E+01 -4.721184129E+02  4.726214192E+02  9.344061824E-06  0.00000E+00  9.000E+00
      21     1     1     2   511   516 -1.002140179E+01 -6.209400436E+01 -5.150483584E+01  8.129478449E+01  6.743495762E-07  0.00000E+00  9.000E+00
      21     1     1     2   516   514 -3.451409854E+00  4.495651754E+01  9.297569094E+00  4.603743575E+01  1.066240300E-06  0.00000E+00  9.000E+00
</event>
<event>
      5  10001  2.02673E+08  2.90180E+01 -1.00000E+00  1.54015E-01
      21    -1     0     0   515   511  0.000000000E+00  0.000000000E+00  1.661299255E+01  1.661299255E+01  0.000000000E+00  0.00000E+00  9.000E+00
       2    -1     0     0   514     0  0.000000000E+00  0.000000000E+00 -2.277306877E+02  2.277306877E+02  0.000000000E+00  0.00000E+00  9.000E+00
      21     1     1     2   514   512  2.938996857E+01  1.577593739E+01 -2.322588085E+01  4.064593454E+01  7.539457465E-07  0.00000E+00  9.000E+00
       2     1     1     2   515     0 -4.891789527E+01  9.626820358E-01 -1.509687594E+02  1.586995981E+02  3.300000131E-01  0.00000E+00  9.000E+00
      21     1     1     2   512   511  1.952792670E+01 -1.673861942E+01 -3.692305490E+01  4.499814757E+01  6.743495762E-07  0.00000E+00  9.000E+00
</event>
<event>
      5  10001  2.02673E+08  3.64831E+01 -1.00000E+00  1.47331E-01
      21    -1     0     0   513   514  0.000000000E+00  0.000000000E+00  8.129013117E+01  8.129013117E+01  0.000000000E+00  0.00000E+00  9.000E+00
      21    -1     0     0   512   511  0.000000000E+00  0.000000000E+00 -9.192045140E+01  9.192045140E+01  0.000000000E+00  0.00000E+00  9.000E+00
      21     1     1     2   513   511 -6.712697594E+00  5.186097237E+01 -7.022367722E+01  8.755561437E+01  9.536743164E-07  0.00000E+00  9.000E+00
      -2     1     1     2     0   514 -1.257295254E+01 -1.993432430E+01  2.929013143E+01  3.759623811E+01  3.300000131E-01  0.00000E+00  9.000E+00
       2     1     1     2   512     0  1.928565014E+01 -3.192664807E+01  3.030322557E+01  4.805873009E+01  3.300000131E-01  0.00000E+00  9.000E+00
</event>
<event>
      5  10001  2.02673E+08  9.16929E+00 -1.00000E+00  2.00153E-01
      21    -1     0     0   515   511  0.000000000E+00  0.000000000E+00  1.315806315E+02  1.315806315E+02  0.000000000E+00  0.00000E+00  9.000E+00
      21    -1     0     0   512   516  0.000000000E+00  0.000000000E+00 -1.164763697E+01  1.164763697E+01  0.000000000E+00  0.00000E+00  9.000E+00
      21     1     1     2   515   516 -2.203940220E+01  2.894966142E+01  3.511099488E+01  5.056283325E+01  6.743495762E-07  0.00000E+00  9.000E+00
      21     1     1     2   513   511  1.128401939E+01 -1.352875360E+01  3.102637047E+01  3.567901249E+01  5.840038640E-07  0.00000E+00  9.000E+00
      21     1     1     2   512   513  1.075538280E+01 -1.542090782E+01  5.379562922E+01  5.698642278E+01  9.536743164E-07  0.00000E+00  9.000E+00
</event>
<event>
      5  10001  2.02673E+08  1.09919E+01 -1.00000E+00  1.91071E-01
      21    -1     0     0   512   511  0.000000000E+00  0.000000000E+00  1.209674035E+01  1.209674035E+01  0.000000000E+00  0.00000E+00  9.000E+00
       2    -1     0     0   513     0  0.000000000E+00  0.000000000E+00 -4.570404048E+02  4.570404048E+02  0.000000000E+00  0.00000E+00  9.000E+00
      21     1     1     2   513   511 -3.267162994E+01  3.994992076E+00 -1.241736057E+01  3.517934349E+01  1.283923342E-06  0.00000E+00  9.000E+00
      21     1     1     2   512   514  2.402417476E+01 -2.931273240E+00 -2.358986419E+02  2.371369279E+02  3.814697266E-06  0.00000E+00  9.000E+00
       2     1     1     2   514     0  8.647455186E+00 -1.063718836E+00 -1.966276620E+02  1.968208738E+02  3.300000131E-01  0.00000E+00  9.000E+00
</event>
<event>
      5  10001  2.02673E+08  3.86569E+01 -1.00000E+00  1.45734E-01
      21    -1     0     0   515   513  0.000000000E+00  0.000000000E+00  5.753521063E+01  5.753521063E+01  0.000000000E+00  0.00000E+00  9.000E+00
      21    -1     0     0   516   515  0.000000000E+00  0.000000000E+00 -2.351321327E+01  2.351321327E+01  0.000000000E+00  0.00000E+00  9.000E+00
      21     1     1     2   517   513 -1.366602377E+01  1.927825696E+01  3.041470879E+01  3.851578777E+01  3.371747881E-07  0.00000E+00  9.000E+00
      21     1     1     2   516   511 -5.416238697E+00 -1.974333448E+01  9.480793899E+00  2.256147936E+01  4.298152060E-07  0.00000E+00  9.000E+00
      21     1     1     2   511   517  1.908226246E+01  4.650775177E-01 -5.873505322E+00  1.997115677E+01  4.380028980E-07  0.00000E+00  9.000E+00
</event>
<event>
      5  10001  2.02673E+08  1.31164E+01 -1.00000E+00  1.83005E-01
      -2    -1     0     0     0   512  0.000000000E+00  0.000000000E+00  9.599335724E+00  9.599335724E+00  0.000000000E+00  0.00000E+00  9.000E+00
      21    -1     0     0   511   514  0.000000000E+00  0.000000000E+00 -1.495710027E+02  1.495710027E+02  0.000000000E+00  0.00000E+00  9.000E+00
      -2     1     1     2     0   513  1.886228625E+01 -1.092933776E+01 -1.313143137E+01  2.545151579E+01  3.300000131E-01  0.00000E+00  9.000E+00
      21     1     1     2   511   512 -2.590734294E+01  1.861935372E+01 -9.503248925E+01  1.002449239E+02  0.000000000E+00  0.00000E+00  9.000E+00
      21     1     1     2   513   514  7.045056687E+00 -7.690015957E+00 -3.180774636E+01  3.347389875E+01  4.768371582E-07  0.00000E+00  9.000E+00
</event>
<event>
      5  10001  2.02673E+08  1.62661E+01 -1.00000E+00  1.74085E-01
      21    -1     0     0   515   511  0.000000000E+00  0.000000000E+00  3.079837168E+01  3.079837168E+01  0.000000000E+00  0.00000E+00  9.000E+00
       5    -1     0     0   512     0  0.000000000E+00  0.000000000E+00 -5.118215945E+01  5.118215945E+01  0.000000000E+00  0.00000E+00  9.000E+00
      21     1     1     2   512   516  1.124105239E+01  1.458026602E+01 -1.117716303E+00  1.844436786E+01  4.174985208E-07  0.00000E+00  9.000E+00
       5     1     1     2   515     0 -1.775697707E+01 -2.613336827E+01 -3.194572324E+01  4.518663970E+01  4.800000191E+00  0.00000E+00  9.000E+00
      21     1     1     2   516   511  6.515924681E+00  1.155310225E+01  1.267965178E+01  1.834952357E+01  4.460403188E-07  0.00000E+00  9.000E+00
</event>
<event>
      5  10001  2.02673E+08  9.61365E+00 -1.00000E+00  1.97697E-01
      21    -1     0     0   514   512  0.000000000E+00  0.000000000E+00  1.687817765E+02  1.687817765E+02  0.000000000E+00  0.00000E+00  9.000E+00
      21    -1     0     0   513   514  0.000000000E+00  0.000000000E+00 -5.450933270E+01  5.450933270E+01  0.000000000E+00  0.00000E+00  9.000E+00
      -5     1     1     2     0   511  2.893878408E+01 -1.436500579E+01  1.254590447E+00  3.268670394E+01  4.800000191E+00  0.00000E+00  9.000E+00
       5     1     1     2   513     0 -2.172066247E+01  2.067903584E+01 -3.266671950E+01  4.460453190E+01  4.800000191E+00  0.00000E+00  9.000E+00
      21     1     1     2   511   512 -7.218121616E+00 -6.314030050E+00  1.456845729E+02  1.459998734E+02  2.697398305E-06  0.00000E+00  9.000E+00
</event>
<event>
      5  10001  2.02673E+08  5.82823E+01 -1.00000E+00  1.35354E-01
      21    -1     0     0   516   512  0.000000000E+00  0.000000000E+00  1.549055100E+02  1.549055100E+02  0.000000000E+00  0.00000E+00  9.000E+00
      -3    -1     0     0     0   515  0.000000000E+00  0.000000000E+00 -4.412052057E+01  4.412052057E+01  0.000000000E+00  0.00000E+00  9.000E+00
      21     1     1     2   513   512 -2.701866795E+01 -1.448593210E+01 -1.156967267E+01  3.276748346E+01  1.305872339E-06  0.00000E+00  9.000E+00
      21     1     1     2   516   515  2.267589466E+01 -2.062798892E+01  1.269297822E+02  1.305790172E+02  1.907348633E-06  0.00000E+00  9.000E+00
      -3     1     1     2     0   513  4.342773283E+00  3.511392101E+01 -4.575120112E+00  3.567952989E+01  5.000000000E-01  0.00000E+00  9.000E+00
</event>
<event>
      5  10001  2.02673E+08  1.75127E+01 -1.00000E+00  1.71229E-01
      21    -1     0     0   515   514  0.000000000E+00  0.000000000E+00  5.669399110E+02  5.669399110E+02  0.000000000E+00  0.00000E+00  9.000E+00
       2    -1     0     0   512     0  0.000000000E+00  0.000000000E+00 -5.875073353E+02  5.875073353E+02  0.000000000E+00  0.00000E+00  9.000E+00
      21     1     1     2   512   514  1.573569250E+01  3.757246374E+01  1.963267937E+02  2.005081344E+02  6.607249480E-06  0.00000E+00  9.000E+00
       2     1     1     2   511     0 -3.289784620E+01 -4.105871579E+01 -5.840253699E+02  5.863905081E+02  3.300000131E-01  0.00000E+00  9.000E+00
      21     1     1     2   515   511  1.716215370E+01  3.486252042E+00  3.671311519E+02  3.675486038E+02  5.394796609E-06  0.00000E+00  9.000E+00
</event>
<event>
      5  10001  2.02673E+08  7.55834E+00 -1.00000E+00  2.10880E-01
      21    -1     0     0   513   511  0.000000000E+00  0.000000000E+00  8.659497970E+01  8.659497970E+01  0.000000000E+00  0.00000E+00  9.000E+00
      21    -1     0     0   512   516  0.000000000E+00  0.000000000E+00 -1.986220549E+01  1.986220549E+01  0.000000000E+00  0.00000E+00  9.000E+00
      21     1     1     2   513   516  1.576314651E+01 -2.644910234E+01  6.585903878E+01  7.270106458E+01  0.000000000E+00  0.00000E+00  9.000E+00
      21     1     1     2   512   514 -8.201837449E+00  2.041269488E+01 -4.832647716E+00  2.252338193E+01  6.194296387E-07  0.00000E+00  9.000E+00
      21     1     1     2   514   511 -7.561309058E+00  6.036407465E+00  5.706383148E+00  1.123273869E+01  2.064765462E-07  0.00000E+00  9.000E+00
</event>
<event>
      5  10001  2.02673E+08  1.72937E+01 -1.00000E+00  1.71709E-01
       2    -1     0     0   512     0  0.000000000E+00  0.000000000E+00  4.154419278E+01  4.154419278E+01  0.000000000E+00  0.00000E+00  9.000E+00
      21    -1     0     0   515   513  0.000000000E+00  0.000000000E+00 -1.332067544E+02  1.332067544E+02  0.000000000E+00  0.00000E+00  9.000E+00
      21     1     1     2   515   514 -1.447855630E+01 -2.839221006E+01 -1.123507336E+02  1.167837040E+02  1.348699152E-06  0.00000E+00  9.000E+00
       2     1     1     2   514     0 -2.594459643E+00  3.114565951E+01  2.513835720E+01  4.011021354E+01  3.300000131E-01  0.00000E+00  9.000E+00
      21     1     1     2   512   513  1.707301594E+01 -2.753449458E+00 -4.450185196E+00  1.785702959E+01  5.685920724E-07  0.00000E+00  9.000E+00
</event>
<event>
      5  10001  2.02673E+08  3.35556E+01 -1.00000E+00  1.49703E-01
      21    -1     0     0   511   516  0.000000000E+00  0.000000000E+00  9.288839289E+00  9.288839289E+00  0.000000000E+00  0.00000E+00  9.000E+00
       2    -1     0     0   512     0  0.000000000E+00  0.000000000E+00 -6.811635605E+02  6.811635605E+02  0.000000000E+00  0.00000E+00  9.000E+00
      21     1     1     2   512   516 -2.791808463E+01  2.669067186E+01 -4.963423139E+01  6.289171916E+01  2.336015456E-06  0.00000E+00  9.000E+00
       2     1     1     2   514     0  2.987288333E+01 -4.023738064E+01 -5.946874607E+02  5.967953760E+02  3.300000131E-01  0.00000E+00  9.000E+00
      21     1     1     2   511   514 -1.954798698E+00  1.354670878E+01 -2.755302907E+01  3.076530461E+01  3.371747881E-07  0.00000E+00  9.000E+00
</event>
<event>
      5  10001  2.02673E+08  1.05752E+01 -1.00000E+00  1.92934E-01
      21    -1     0     0   512   513  0.000000000E+00  0.000000000E+00  3.973548218E+01  3.973548218E+01  0.000000000E+00  0.00000E+00  9.000E+00
      21    -1     0     0   511   514  0.000000000E+00  0.000000000E+00 -9.244421201E+01  9.244421201E+01  0.000000000E+00  0.00000E+00  9.000E+00
      -2     1     1     2     0   514 -3.995716574E+01  2.464921288E+01 -8.298255419E+00  4.767733982E+01  3.300000131E-01  0.00000E+00  9.000E+00
      21     1     1     2   511   513  3.016432440E+01 -2.065818047E+01 -5.721119154E+01  6.789526732E+01  1.168007728E-06  0.00000E+00  9.000E+00
       2     1     1     2   512     0  9.792841332E+00 -3.991032409E+00  1.280071713E+01  1.660708705E+01  3.300000131E-01  0.00000E+00  9.000E+00
</event>
<event>
      5  10001  2.02673E+08  2.84837E+01 -1.00000E+00  1.54585E-01
      21    -1     0     0   515   511  0.000000000E+00  0.000000000E+00  3.499424163E+01  3.499424163E+01  0.000000000E+00  0.00000E+00  9.000E+00
      21    -1     0     0   517   516  0.000000000E+00  0.000000000E+00 -3.819433200E+01  3.819433200E+01  0.000000000E+00  0.00000E+00  9.000E+00
      21     1     1     2   515   516  2.452698954E+01 -1.140726927E+01  1.122307991E+01  2.928577352E+01  3.576278687E-07  0.00000E+00  9.000E+00
      -2     1     1     2     0   511 -1.056006085E+01  2.110233476E+01 -3.940322985E+00  2.392610421E+01  3.300000131E-01  0.00000E+00  9.000E+00
       2     1     1     2   517     0 -1.396692868E+01 -9.695065489E+00 -1.048284730E+01  1.997669590E+01  3.300000131E-01  0.00000E+00  9.000E+00
</event>
<event>
      5  10001  2.02673E+08  1.31186E+01 -1.00000E+00  1.82997E-01
      21    -1     0     0   512   516  0.000000000E+00  0.000000000E+00  8.122912480E+01  8.122912480E+01  0.000000000E+00  0.00000E+00  9.000E+00
       1    -1     0     0   514     0  0.000000000E+00  0.000000000E+00 -2.079278195E+02  2.079278195E+02  0.000000000E+00  0.00000E+00  9.000E+00
      21     1     1     2   512   513 -2.514989443E+01 -1.107281235E+01  7.354561864E+01  7.851167037E+01  1.651812370E-06  0.00000E+00  9.000E+00
      21     1     1     2   514   516  2.903025896E+01  2.360440115E+01 -6.686110253E+01  7.661808350E+01  1.348699152E-06  0.00000E+00  9.000E+00
       1     1     1     2   513     0 -3.880364536E+00 -1.253158880E+01 -1.333832108E+02  1.340271904E+02  3.300000131E-01  0.00000E+00  9.000E+00
</event>
<event>
      5  10001  2.02673E+08  1.02924E+02 -1.00000E+00  1.23245E-01
      21    -1     0     0   511   514  0.000000000E+00  0.000000000E+00  8.272189690E+01  8.272189690E+01  0.000000000E+00  0.00000E+00  9.000E+00
       1    -1     0     0   513     0  0.000000000E+00  0.000000000E+00 -8.483188204E+01  8.483188204E+01  0.000000000E+00  0.00000E+00  9.000E+00
      21     1     1     2   512   514 -9.275918462E+00  1.623560531E+01 -1.111710420E+01  2.175379390E+01  2.665600750E-07  0.00000E+00  9.000E+00
       1     1     1     2   511     0  1.021339094E+01 -5.362140066E+01 -5.125405049E+01  7.487759715E+01  3.300000131E-01  0.00000E+00  9.000E+00
      21     1     1     2   513   512 -9.374724824E-01  3.738579535E+01  6.026116955E+01  7.092238789E+01  1.168007728E-06  0.00000E+00  9.000E+00
</event>
<event>
      5  10001  2.02673E+08  2.47056E+01 -1.00000E+00  1.59099E-01
      21    -1     0     0   513   514  0.000000000E+00  0.000000000E+00  7.847796541E+00  7.847796541E+00  0.000000000E+00  0.00000E+00  9.000E+00
       2    -1     0     0   511     0  0.000000000E+00  0.000000000E+00 -8.162322674E+02  8.162322674E+02  0.000000000E+00  0.00000E+00  9.000E+00
      21     1     1     2   511   515  1.378419552E+01  2.553844715E+01 -4.072150918E+02  4.082478993E+02  5.394796609E-06  0.00000E+00  9.000E+00
       2     1     1     2   513     0 -1.476728878E+01 -5.022431705E+01 -3.791223845E+02  3.827198011E+02  3.300000131E-01  0.00000E+00  9.000E+00
      21     1     1     2   515   514  9.830932594E-01  2.468586990E+01 -2.204699453E+01  3.311236344E+01  8.596304120E-07  0.00000E+00  9.000E+00
</event>
<event>
      5  10001  2.02673E+08  3.28319E+01 -1.00000E+00  1.50334E-01
      21    -1     0     0   512   515  0.000000000E+00  0.000000000E+00  1.653068371E+02  1.653068371E+02  0.000000000E+00  0.00000E+00  9.000E+00
      21    -1     0     0   511   514  0.000000000E+00  0.000000000E+00 -6.328932941E+00  6.328932941E+00  0.000000000E+00  0.00000E+00  9.000E+00
      21     1     1     2   512   514 -2.441909267E+01 -7.215233974E+00  8.011381329E+01  8.406292148E+01  9.536743164E-07  0.00000E+00  9.000E+00
      21     1     1     2   513   515  1.200774467E+01  8.523243457E-01  7.004344771E+01  7.107036623E+01  9.536743164E-07  0.00000E+00  9.000E+00
      21     1     1     2   511   513  1.241134799E+01  6.362909628E+00  8.820643201E+00  1.650248237E+01  3.371747881E-07  0.00000E+00  9.000E+00
</event>
<event>
      5  10001  2.02673E+08  7.47711E+00 -1.00000E+00  2.11516E-01
      -2    -1     0     0     0   516  0.000000000E+00  0.000000000E+00  8.565403360E+01  8.565403360E+01  0.000000000E+00  0.00000E+00  9.000E+00
      21    -1     0     0   512   513  0.000000000E+00  0.000000000E+00 -2.560535899E+01  2.560535899E+01  0.000000000E+00  0.00000E+00  9.000E+00
      -2     1     1     2     0   514 -2.489132293E+01  6.302755826E+00  4.824451813E+01  5.465295159E+01  3.300000131E-01  0.00000E+00  9.000E+00
      21     1     1     2   512   516  3.782027494E+01 -9.902350540E+00  5.618474565E-01  3.909917410E+01  8.269808844E-07  0.00000E+00  9.000E+00
      21     1     1     2   514   513 -1.292895201E+01  3.599594714E+00  1.124230902E+01  1.750726690E+01  4.768371582E-07  0.00000E+00  9.000E+00
</event>
<event>
      5  10001  2.02673E+08  3.36176E+01 -1.00000E+00  1.49650E-01
      21    -1     0     0   511   512  0.000000000E+00  0.000000000E+00  8.035761352E+01  8.035761352E+01  0.000000000E+00  0.00000E+00  9.000E+00
      21    -1     0     0   514   515  0.000000000E+00  0.000000000E+00 -2.848888713E+02  2.848888713E+02  0.000000000E+00  0.00000E+00  9.000E+00
      21     1     1     2   511   515 -1.115427853E+01  4.579010075E+01 -2.674631676E+02  2.715836837E+02  3.814697266E-06  0.00000E+00  9.000E+00
      21     1     1     2   514   516  2.955311135E+01 -2.450128880E+01  4.905172400E+01  6.228780917E+01  6.743495762E-07  0.00000E+00  9.000E+00
      21     1     1     2   516   512 -1.839883282E+01 -2.128881194E+01  1.388018577E+01  3.137499196E+01  4.129530925E-07  0.00000E+00  9.000E+00
</event>
<event>
      5  10001  2.02673E+08  1.02803E+01 -1.00000E+00  1.94322E-01
       3    -1     0     0   513     0  0.000000000E+00  0.000000000E+00  2.851703013E+02  2.851703013E+02  0.000000000E+00  0.00000E+00  9.000E+00
       1    -1     0     0   511     0  0.000000000E+00  0.000000000E+00 -1.991981549E+02  1.991981549E+02  0.000000000E+00  0.00000E+00  9.000E+00
       1     1     1     2   514     0 -2.746907188E+01  1.406250278E+00 -1.946733484E+02  1.966070927E+02  3.300000131E-01  0.00000E+00  9.000E+00
       3     1     1     2   511     0  3.084144772E+01  4.816572490E+00  2.786695459E+02  2.804128387E+02  5.000000000E-01  0.00000E+00  9.000E+00
      21     1     1     2   513   514 -3.372375846E+00 -6.222822767E+00  1.975948879E+00  7.348524751E+00  8.429369702E-08  0.00000E+00  9.000E+00
</event>
<event>
      5  10001  2.02673E+08  1.43762E+01 -1.00000E+00  1.79091E-01
      21    -1     0     0   512   514  0.000000000E+00  0.000000000E+00  3.957068514E+01  3.957068514E+01  0.000000000E+00  0.00000E+00  9.000E+00
      21    -1     0     0   515   512  0.000000000E+00  0.000000000E+00 -3.043156225E+01  3.043156225E+01  0.000000000E+00  0.00000E+00  9.000E+00
      21     1     1     2   511   514  2.451511060E+01  1.261830743E+01  1.750291591E+01  3.265829750E+01  0.000000000E+00  0.00000E+00  9.000E+00
      21     1     1     2   516   511 -2.704893887E+01 -4.612802224E+00 -3.558348457E+00  2.766920458E+01  5.230286352E-07  0.00000E+00  9.000E+00
      21     1     1     2   515   516  2.533828269E+00 -8.005505211E+00 -4.805444566E+00  9.674745312E+00  2.149076030E-07  0.00000E+00  9.000E+00
</event>
<event>
      5  10001  2.02673E+08  1.22023E+01 -1.00000E+00  1.86215E-01
      21    -1     0     0   511   515  0.000000000E+00  0.000000000E+00  5.706820408E+00  5.706820408E+00  0.000000000E+00  0.00000E+00  9.000E+00
      -1    -1     0     0     0   513  0.000000000E+00  0.000000000E+00 -2.148371052E+02  2.148371052E+02  0.000000000E+00  0.00000E+00  9.000E+00
      -1     1     1     2     0   512 -3.035690950E+01 -7.317384122E+00 -1.161868544E+02  1.203103491E+02  3.300000131E-01  0.00000E+00  9.000E+00
      21     1     1     2   511   513  2.602903332E+01  1.073063950E+01 -5.396838679E+01  6.087071522E+01  0.000000000E+00  0.00000E+00  9.000E+00
      21     1     1     2   512   515  4.327876189E+00 -3.413255374E+00 -3.897504362E+01  3.936286130E+01  0.000000000E+00  0.00000E+00  9.000E+00
</event>
<event>
      5  10001  2.02673E+08  5.84010E+00 -1.00000E+00  2.27229E-01
      21    -1     0     0   514   516  0.000000000E+00  0.000000000E+00  2.538052645E+01  2.538052645E+01  0.000000000E+00  0.00000E+00  9.000E+00
      21    -1     0     0   511   515  0.000000000E+00  0.000000000E+00 -5.527401252E+01  5.527401252E+01  0.000000000E+00  0.00000E+00  9.000E+00
      21     1     1     2   514   515  2.242576307E+01 -1.976785581E+01 -2.786775614E+01  4.086924033E+01  0.000000000E+00  0.00000E+00  9.000E+00
      21     1     1     2   512   516 -1.900385867E+01  2.450043772E+01  4.152651435E+00  3.128358366E+01  5.960464478E-07  0.00000E+00  9.000E+00
      21     1     1     2   511   512 -3.421904400E+00 -4.732581914E+00 -6.178381369E+00  8.501714982E+00  0.000000000E+00  0.00000E+00  9.000E+00
</event>
<event>
      5  10001  2.02673E+08  9.43362E+00 -1.00000E+00  1.98670E-01
      21    -1     0     0   513   512  0.000000000E+00  0.000000000E+00  3.867379864E+00  3.867379864E+00  0.000000000E+00  0.00000E+00  9.000E+00
       2    -1     0     0   511     0  0.000000000E+00  0.000000000E+00 -1.318933182E+03  1.318933182E+03  0.000000000E+00  0.00000E+00  9.000E+00
      21     1     1     2   513   517 -1.257205492E+01 -3.192719808E+01 -1.148020916E+02  1.198203772E+02  3.015782986E-06  0.00000E+00  9.000E+00
      21     1     1     2   511   512  2.029156421E+01  3.734945591E+01 -3.376629334E+02  3.403277627E+02  0.000000000E+00  0.00000E+00  9.000E+00
       2     1     1     2   517     0 -7.719509289E+00 -5.422257828E+00 -8.626007773E+02  8.626524223E+02  3.300000131E-01  0.00000E+00  9.000E+00
</event>
<event>
      5  10001  2.02673E+08  3.31972E+01 -1.00000E+00  1.50013E-01
      21    -1     0     0   514   511  0.000000000E+00  0.000000000E+00  2.577483900E+02  2.577483900E+02  0.000000000E+00  0.00000E+00  9.000E+00
      21    -1     0     0   515   514  0.000000000E+00  0.000000000E+00 -2.634142513E+01  2.634142513E+01  0.000000000E+00  0.00000E+00  9.000E+00
      21     1     1     2   515   516  1.970518495E+01 -5.705280279E+01  2.412900525E+01  6.500404229E+01  1.390207266E-06  0.00000E+00  9.000E+00
      21     1     1     2   516   512 -2.882887931E+01  2.683692021E+01  1.161506059E+02  1.226470049E+02  0.000000000E+00  0.00000E+00  9.000E+00
      21     1     1     2   512   511  9.123694358E+00  3.021588257E+01  9.112735373E+01  9.643876791E+01  1.907348633E-06  0.00000E+00  9.000E+00
</event>
<event>
      5  10001  2.02673E+08  1.87778E+01 -1.00000E+00  1.68618E-01
      21    -1     0     0   513   516  0.000000000E+00  0.000000000E+00  4.527542065E+00  4.527542065E+00  0.000000000E+00  0.00000E+00  9.000E+00
      21    -1     0     0   515   511  0.000000000E+00  0.000000000E+00 -2.816895431E+02  2.816895431E+02  0.000000000E+00  0.00000E+00  9.000E+00
      21     1     1     2   513   511  9.580618176E+00 -2.645975578E+01 -1.923553062E+02  1.944028569E+02  0.000000000E+00  0.00000E+00  9.000E+00
      -5     1     1     2     0   516 -2.773752425E+00  1.893086490E+01 -7.258753715E+01  7.522008973E+01  4.800000191E+00  0.00000E+00  9.000E+00
       5     1     1     2   515     0 -6.806865751E+00  7.528890884E+00 -1.221915766E+01  1.659413858E+01  4.800000191E+00  0.00000E+00  9.000E+00
</event>
<event>
      5  10001  2.02673E+08  1.05329E+01 -1.00000E+00  1.93129E-01
      21    -1     0     0   514   515  0.000000000E+00  0.000000000E+00  6.495710741E+01  6.495710741E+01  0.000000000E+00  0.00000E+00  9.000E+00
      -2    -1     0     0     0   512  0.000000000E+00  0.000000000E+00 -6.466167177E+01  6.466167177E+01  0.000000000E+00  0.00000E+00  9.000E+00
      -2     1     1     2     0   511 -1.186774059E+01  2.630248002E+01 -5.511295749E+01  6.221101755E+01  3.300000131E-01  0.00000E+00  9.000E+00
      21     1     1     2   514   512  1.730660558E+01 -2.315746192E+01  5.355082041E+01  6.085619941E+01  6.743495762E-07  0.00000E+00  9.000E+00
      21     1     1     2   511   515 -5.438864987E+00 -3.145018097E+00  1.857572715E+00  6.551562224E+00  7.598131170E-08  0.00000E+00  9.000E+00
</event>
<event>
      5  10001  2.02673E+08  1.37452E+01 -1.00000E+00  1.80985E-01
       1    -1     0     0   514     0  0.000000000E+00  0.000000000E+00  1.005418176E+02  1.005418176E+02  0.000000000E+00  0.00000E+00  9.000E+00
      21    -1     0     0   511   512  0.000000000E+00  0.000000000E+00 -3.161047746E+02  3.161047746E+02  0.000000000E+00  0.00000E+00  9.000E+00
      21     1     1     2   511   513  2.960513414E+01 -1.183077994E+01 -3.057284076E+02  3.073862238E+02  5.394796609E-06  0.00000E+00  9.000E+00
       1     1     1     2   513     0 -2.954029399E+01  2.557577032E+01  8.667970854E+01  9.508012289E+01  3.300000131E-01  0.00000E+00  9.000E+00
      21     1     1     2   514   512 -6.484015352E-02 -1.374499039E+01  3.485742056E+00  1.418024551E+01  2.528810911E-07  0.00000E+00  9.000E+00
</event>
<event>
      5  10001  2.02673E+08  1.97971E+01 -1.00000E+00  1.66693E-01
       2    -1     0     0   513     0  0.000000000E+00  0.000000000E+00  4.389556652E+02  4.389556652E+02  0.000000000E+00  0.00000E+00  9.000E+00
      21    -1     0     0   514   512  0.000000000E+00  0.000000000E+00 -1.550439185E+01  1.550439185E+01  0.000000000E+00  0.00000E+00  9.000E+00
      21     1     1     2   511   512 -1.994014883E+01 -1.228856105E+01  4.175461914E+01  4.787553120E+01  1.066240300E-06  0.00000E+00  9.000E+00
       2     1     1     2   514     0  5.754538598E+01  3.882311683E+01  3.306282704E+02  3.378370434E+02  3.300000131E-01  0.00000E+00  9.000E+00
      21     1     1     2   513   511 -3.760523715E+01 -2.653455578E+01  5.106838389E+01  6.874748246E+01  1.651812370E-06  0.00000E+00  9.000E+00
</event>
<event>
      5  10001  2.02673E+08  2.03179E+01 -1.00000E+00  1.65765E-01
      21    -1     0     0   515   511  0.000000000E+00  0.000000000E+00  4.180683560E+00  4.180683560E+00  0.000000000E+00  0.00000E+00  9.000E+00
      21    -1     0     0   516   515  0.000000000E+00  0.000000000E+00 -7.061700292E+02  7.061700292E+02  0.000000000E+00  0.00000E+00  9.000E+00
      21     1     1     2   514   511 -1.345736390E+01 -3.516268195E+01 -9.884435539E+01  1.057720258E+02  1.907348633E-06  0.00000E+00  9.000E+00
      21     1     1     2   512   514  1.390983950E+01  1.181373454E+01 -2.585359097E+02  2.591792133E+02  3.814697266E-06  0.00000E+00  9.000E+00
      21     1     1     2   516   512 -4.524756012E-01  2.334894741E+01 -3.446090805E+02  3.453994737E+02  3.814697266E-06  0.00000E+00  9.000E+00
</event>
<event>
      5  10001  2.02673E+08  1.55451E+01 -1.00000E+00  1.75889E-01
       1    -1     0     0   515     0  0.000000000E+00  0.000000000E+00  8.690220574E+02  8.690220574E+02  0.000000000E+00  0.00000E+00  9.000E+00
      21    -1     0     0   513   512  0.000000000E+00  0.000000000E+00 -3.536933887E+00  3.536933887E+00  0.000000000E+00  0.00000E+00  9.000E+00
      21     1     1     2   515   512 -1.876757309E+01  2.943560459E+01  9.744843582E+01  1.035126768E+02  3.303624740E-06  0.00000E+00  9.000E+00
       1     1     1     2   511     0  1.271668051E+01 -2.413404893E+01  4.036744950E+02  4.045953201E+02  3.300000131E-01  0.00000E+00  9.000E+00
      21     1     1     2   513   511  6.050892576E+00 -5.301555660E+00  3.643621928E+02  3.644509944E+02  5.394796609E-06  0.00000E+00  9.000E+00
</event>
<event>
      5  10001  2.02673E+08  1.10360E+01 -1.00000E+00  1.90880E-01
      21    -1     0     0   512   511  0.000000000E+00  0.000000000E+00  1.791265453E+01  1.791265453E+01  0.000000000E+00  0.00000E+00  9.000E+00
      21    -1     0     0   513   514  0.000000000E+00  0.000000000E+00 -9.624319802E+01  9.624319802E+01  0.000000000E+00  0.00000E+00  9.000E+00
      21     1     1     2   513   516 -8.429231454E+00 -2.569013555E+01 -4.310239413E+01  5.088075655E+01  1.348699152E-06  0.00000E+00  9.000E+00
      21     1     1     2   516   511  8.725796983E+00  3.672210316E+01 -3.606852551E+01  5.220719229E+01  4.768371582E-07  0.00000E+00  9.000E+00
      21     1     1     2   512   514 -2.965655294E-01 -1.103196761E+01  8.403761549E-01  1.106790371E+01  2.190014490E-07  0.00000E+00  9.000E+00
</event>
<event>
      5  10001  2.02673E+08  1.95592E+01 -1.00000E+00  1.67130E-01
      21    -1     0     0   515   513  0.000000000E+00  0.000000000E+00  5.573762399E+01  5.573762399E+01  0.000000000E+00  0.00000E+00  9.000E+00
      21    -1     0     0   511   512  0.000000000E+00  0.000000000E+00 -1.464423703E+02  1.464423703E+02  0.000000000E+00  0.00000E+00  9.000E+00
      -5     1     1     2     0   512 -1.941919396E+01  2.683597429E+01 -1.125091753E+02  1.173824056E+02  4.800000191E+00  0.00000E+00  9.000E+00
       5     1     1     2   515     0  2.893322916E+01 -4.388137120E+01 -3.432916991E+00  5.289169509E+01  4.800000191E+00  0.00000E+00  9.000E+00
      21     1     1     2   511   513 -9.514035204E+00  1.704539691E+01  2.523734593E+01  3.190589367E+01  3.371747881E-07  0.00000E+00  9.000E+00
</event>
<event>
      5  10001  2.02673E+08  1.31379E+01 -1.00000E+00  1.82934E-01
      -2    -1     0     0     0   513  0.000000000E+00  0.000000000E+00  2.765314144E+01  2.765314144E+01  0.000000000E+00  0.00000E+00  9.000E+00
      21    -1     0     0   514   515  0.000000000E+00  0.000000000E+00 -3.453932190E+01  3.453932190E+01  0.000000000E+00  0.00000E+00  9.000E+00
      21     1     1     2   512   515 -1.369909713E+01  1.601526673E+00 -1.095544851E+01  1.761397178E+01  3.153981341E-07  0.00000E+00  9.000E+00
      21     1     1     2   514   513  2.862145986E+01  2.968494057E+00  3.027256691E+00  2.893379002E+01  2.021291847E-07  0.00000E+00  9.000E+00
      -2     1     1     2     0   512 -1.492236273E+01 -4.570020731E+00  1.042011360E+00  1.564470155E+01  3.300000131E-01  0.00000E+00  9.000E+00
</event>
<event>
      5  10001  2.02673E+08  1.96648E+01 -1.00000E+00  1.66935E-01
      21    -1     0     0   511   514  0.000000000E+00  0.000000000E+00  4.033820771E+01  4.033820771E+01  0.000000000E+00  0.00000E+00  9.000E+00
      21    -1     0     0   516   511  0.000000000E+00  0.000000000E+00 -7.134032138E+01  7.134032138E+01  0.000000000E+00  0.00000E+00  9.000E+00
      21     1     1     2   516   512 -2.937095120E+01 -3.562418523E+00 -5.011295601E+01  5.819494789E+01  6.743495762E-07  0.00000E+00  9.000E+00
      21     1     1     2   513   514  3.954533758E+01  2.308880408E+00  1.645045517E+01  4.289268153E+01  4.129530925E-07  0.00000E+00  9.000E+00
      21     1     1     2   512   513 -1.017438638E+01  1.253538115E+00  2.660387163E+00  1.059089967E+01  7.300048300E-08  0.00000E+00  9.000E+00
</event>
<event>
      5  10001  2.02673E+08  7.42298E+00 -1.00000E+00  2.11945E-01
       1    -1     0     0   512     0  0.000000000E+00  0.000000000E+00  2.690131041E+01  2.690131041E+01  0.000000000E+00  0.00000E+00  9.000E+00
      21    -1     0     0   515   511  0.000000000E+00  0.000000000E+00 -3.693488673E+02  3.693488673E+02  0.000000000E+00  0.00000E+00  9.000E+00
      21     1     1     2   512   511 -4.156886980E+01 -7.972419260E+00 -3.445187859E+02  3.471090956E+02  7.629394531E-06  0.00000E+00  9.000E+00
       1     1     1     2   514     0  3.493159825E+01  1.174746169E+01  9.944202815E+00  3.817349187E+01  3.300000131E-01  0.00000E+00  9.000E+00
      21     1     1     2   515   514  6.637271549E+00 -3.775042427E+00 -7.872973791E+00  1.096759022E+01  8.429369702E-08  0.00000E+00  9.000E+00
</event>
<event>
      5  10001  2.02673E+08  7.66247E+00 -1.00000E+00  2.10081E-01
      21    -1     0     0   514   515  0.000000000E+00  0.000000000E+00  2.456975272E+02  2.456975272E+02  0.000000000E+00  0.00000E+00  9.000E+00
       3    -1     0     0   515     0  0.000000000E+00  0.000000000E+00 -1.977813179E+01  1.977813179E+01  0.000000000E+00  0.00000E+00  9.000E+00
      21     1     1     2   514   511 -2.503008564E+01  8.939252728E+00  2.153878580E+02  2.170215308E+02  3.814697266E-06  0.00000E+00  9.000E+00
       3     1     1     2   513     0  2.713985483E+01 -1.574947222E+01 -4.608722374E+00  3.171920424E+01  5.000000000E-01  0.00000E+00  9.000E+00
      21     1     1     2   511   513 -2.109769188E+00  6.810219493E+00  1.514025975E+01  1.673492399E+01  1.685873940E-07  0.00000E+00  9.000E+00
</event>
<event>
      5  10001  2.02673E+08  1.66876E+01 -1.00000E+00  1.73085E-01
      21    -1     0     0   512   511  0.000000000E+00  0.000000000E+00  5.737533942E+02  5.737533942E+02  0.000000000E+00  0.00000E+00  9.000E+00
       5    -1     0     0   515     0  0.000000000E+00  0.000000000E+00 -2.924208171E+01  2.924208171E+01  0.000000000E+00  0.00000E+00  9.000E+00
      21     1     1     2   515   516  3.864474098E+01 -1.794006627E+01  3.887516105E+02  3.910793738E+02  7.629394531E-06  0.00000E+00  9.000E+00
      21     1     1     2   516   511 -2.318622106E+01  1.167076126E+01  1.801328401E+02  1.819935372E+02  2.697398305E-06  0.00000E+00  9.000E+00
       5     1     1     2   512     0 -1.545851992E+01  6.269305010E+00 -2.437313809E+01  2.992256483E+01  4.800000191E+00  0.00000E+00  9.000E+00
</event>
<event>
      5  10001  2.02673E+08  1.34451E+01 -1.00000E+00  1.81931E-01
      -3    -1     0     0     0   514  0.000000000E+00  0.000000000E+00  1.621552639E+01  1.621552639E+01  0.000000000E+00  0.00000E+00  9.000E+00
      21    -1     0     0   511   512  0.000000000E+00  0.000000000E+00 -1.037869139E+02  1.037869139E+02  0.000000000E+00  0.00000E+00  9.000E+00
      -3     1     1     2     0   512  5.949124531E+00 -3.795708294E+01 -3.428254983E+01  5.149442155E+01  5.000000000E-01  0.00000E+00  9.000E+00
      21     1     1     2   511   513  3.661355563E+00  2.855520223E+01 -4.217780393E+01  5.106635139E+01  6.743495762E-07  0.00000E+00  9.000E+00
      21     1     1     2   513   514 -9.610480094E+00  9.401880709E+00 -1.111103372E+01  1.744166732E+01  1.685873940E-07  0.00000E+00  9.000E+00
</event>
<event>
      5  10001  2.02673E+08  1.24934E+01 -1.00000E+00  1.85155E-01
      21    -1     0     0   515   511  0.000000000E+00  0.000000000E+00  2.394582858E+01  2.394582858E+01  0.000000000E+00  0.00000E+00  9.000E+00
      21    -1     0     0   516   514  0.000000000E+00  0.000000000E+00 -1.322221367E+02  1.322221367E+02  0.000000000E+00  0.00000E+00  9.000E+00
      21     1     1     2   515   514  4.895284090E+01  1.995338300E+01 -6.063597034E+01  8.044401174E+01  6.743495762E-07  0.00000E+00  9.000E+00
      21     1     1     2   512   511 -4.624064900E+01 -1.297115324E+01 -4.841404188E+01  6.819360592E+01  1.168007728E-06  0.00000E+00  9.000E+00
      21     1     1     2   516   512 -2.712191903E+00 -6.982229760E+00  7.737040967E-01  7.530347626E+00  9.657056180E-08  0.00000E+00  9.000E+00
</event>
<event>
      5  10001  2.02673E+08  2.11006E+01 -1.00000E+00  1.64431E-01
      21    -1     0     0   513   512  0.000000000E+00  0.000000000E+00  8.980745076E+01  8.980745076E+01  0.000000000E+00  0.00000E+00  9.000E+00
      21    -1     0     0   516   517  0.000000000E+00  0.000000000E+00 -5.883201367E+02  5.883201367E+02  0.000000000E+00  0.00000E+00  9.000E+00
      21     1     1     2   513   517  8.169413235E+01 -6.325504846E+01  5.210406970E+01  1.157150228E+02  1.651812370E-06  0.00000E+00  9.000E+00
      21     1     1     2   511   512 -6.336519919E+01  4.041348202E+01 -4.817524512E+02  4.875795548E+02  0.000000000E+00  0.00000E+00  9.000E+00
      21     1     1     2   516   511 -1.832893316E+01  2.284156644E+01 -6.886430450E+01  7.483300998E+01  0.000000000E+00  0.00000E+00  9.000E+00
</event>
<event>
      5  10001  2.02673E+08  5.57236E+01 -1.00000E+00  1.36414E-01
      21    -1     0     0   514   511  0.000000000E+00  0.000000000E+00  1.154153637E+01  1.154153637E+01  0.000000000E+00  0.00000E+00  9.000E+00
      21    -1     0     0   515   514  0.000000000E+00  0.000000000E+00 -3.675254166E+02  3.675254166E+02  0.000000000E+00  0.00000E+00  9.000E+00
      21     1     1     2   515   516 -3.766431238E+01  2.360189736E+01 -2.321689435E+02  2.363854232E+02  2.697398305E-06  0.00000E+00  9.000E+00
      21     1     1     2   512   511  8.060773515E+00 -3.633857256E+01 -8.053771443E+01  8.872311633E+01  1.348699152E-06  0.00000E+00  9.000E+00
      21     1     1     2   516   512  2.960353887E+01  1.273667520E+01 -4.327722231E+01  5.395841342E+01  6.743495762E-07  0.00000E+00  9.000E+00
</event>
<event>
      5  10001  2.02673E+08  1.07264E+01 -1.00000E+00  1.92245E-01
       2    -1     0     0   513     0  0.000000000E+00  0.000000000E+00  9.235115701E+01  9.235115701E+01  0.000000000E+00  0.00000E+00  9.000E+00
      -5    -1     0     0     0   514  0.000000000E+00  0.000000000E+00 -3.856435699E+01  3.856435699E+01  0.000000000E+00  0.00000E+00  9.000E+00
      -5     1     1     2     0   511  3.652563109E+01  1.941026613E+01  3.577696055E+01  5.489909895E+01  4.800000191E+00  0.00000E+00  9.000E+00
       2     1     1     2   511     0 -4.632132166E+01 -2.372237448E+01  2.989807953E+01  6.002016287E+01  3.300000131E-01  0.00000E+00  9.000E+00
      21     1     1     2   513   514  9.795690569E+00  4.312108347E+00 -1.188824006E+01  1.599625218E+01  1.685873940E-07  0.00000E+00  9.000E+00
</event>
<event>
      5  10001  2.02673E+08  1.02911E+01 -1.00000E+00  1.94270E-01
      -2    -1     0     0     0   512  0.000000000E+00  0.000000000E+00  8.467480764E+01  8.467480764E+01  0.000000000E+00  0.00000E+00  9.000E+00
      21    -1     0     0   511   514  0.000000000E+00  0.000000000E+00 -4.320007944E+01  4.320007944E+01  0.000000000E+00  0.00000E+00  9.000E+00
      -2     1     1     2     0   514  3.223022265E+01  1.933752264E-01  6.799064822E+01  7.524401499E+01  3.300000131E-01  0.00000E+00  9.000E+00
      21     1     1     2   513   512 -3.335913373E+01  1.003552241E+01 -1.767321060E+01  3.906258935E+01  8.259061849E-07  0.00000E+00  9.000E+00
      21     1     1     2   511   513  1.128911086E+00 -1.022889763E+01 -8.842709414E+00  1.356828275E+01  1.192092896E-07  0.00000E+00  9.000E+00
</event>
<event>
      5  10001  2.02673E+08  1.55219E+00 -1.00000E+00  4.23408E-01
      -1    -1     0     0     0   513  0.000000000E+00  0.000000000E+00  3.119117424E+01  3.119117424E+01  0.000000000E+00  0.00000E+00  9.000E+00
      21    -1     0     0   512   514  0.000000000E+00  0.000000000E+00 -1.034233835E+02  1.034233835E+02  0.000000000E+00  0.00000E+00  9.000E+00
      -4     1     1     2     0   513 -5.698398391E+00 -2.956838998E+01 -5.284719659E+00  3.060947063E+01  1.500000000E+00  0.00000E+00  9.000E+00
      -1     1     1     2     0   514  7.225092437E+00  2.984367738E+01  5.778954347E+00  3.124663588E+01  3.300000131E-01  0.00000E+00  9.000E+00
       4     1     1     2   512     0 -1.526694046E+00 -2.752874004E-01 -7.272644390E+01  7.275845120E+01  1.500000000E+00  0.00000E+00  9.000E+00
</event>
<event>
      5  10001  2.02673E+08  8.82415E+00 -1.00000E+00  2.02192E-01
      21    -1     0     0   511   512  0.000000000E+00  0.000000000E+00  4.730253859E+00  4.730253859E+00  0.000000000E+00  0.00000E+00  9.000E+00
       1    -1     0     0   513     0  0.000000000E+00  0.000000000E+00 -4.398581286E+02  4.398581286E+02  0.000000000E+00  0.00000E+00  9.000E+00
      21     1     1     2   513   514  2.528720422E+01 -2.381742559E+01 -2.557304029E+02  2.580789636E+02  2.697398305E-06  0.00000E+00  9.000E+00
       1     1     1     2   511     0 -2.903614194E+01  2.268538166E+01 -9.315783306E+01  1.001809106E+02  3.300000131E-01  0.00000E+00  9.000E+00
      21     1     1     2   514   512  3.748937716E+00  1.132043924E+00 -8.623963880E+01  8.632850837E+01  1.348699152E-06  0.00000E+00  9.000E+00
</event>
<event>
      5  10001  2.02673E+08  1.62491E+01 -1.00000E+00  1.74126E-01
      -3    -1     0     0     0   512  0.000000000E+00  0.000000000E+00  7.450513713E+01  7.450513713E+01  0.000000000E+00  0.00000E+00  9.000E+00
       2    -1     0     0   512     0  0.000000000E+00  0.000000000E+00 -1.786060941E+02  1.786060941E+02  0.000000000E+00  0.00000E+00  9.000E+00
      -3     1     1     2     0   513  1.206183752E+01  3.038905396E+01  5.618957993E+01  6.501154834E+01  5.000000000E-01  0.00000E+00  9.000E+00
      21     1     1     2   513   515 -5.062762202E+00 -4.505340551E+01 -2.487576005E+01  5.171309648E+01  1.066240300E-06  0.00000E+00  9.000E+00
       2     1     1     2   515     0 -6.999075319E+00  1.466435155E+01 -1.354147769E+02  1.363865864E+02  3.300000131E-01  0.00000E+00  9.000E+00
</event>
<event>
      5  10001  2.02673E+08  3.65829E+01 -1.00000E+00  1.47255E-01
      21    -1     0     0   511   513  0.000000000E+00  0.000000000E+00  6.566459360E+01  6.566459360E+01  0.000000000E+00  0.00000E+00  9.000E+00
      21    -1     0     0   512   511  0.000000000E+00  0.000000000E+00 -1.402299160E+02  1.402299160E+02  0.000000000E+00  0.00000E+00  9.000E+00
      21     1     1     2   512   514 -3.089513920E+01  4.593212357E+01 -1.049792855E+02  1.186799056E+02  1.348699152E-06  0.00000E+00  9.000E+00
      21     1     1     2   514   516  1.438376771E+01 -2.337507277E+01  4.720572744E+01  5.460464728E+01  1.907348633E-06  0.00000E+00  9.000E+00
      21     1     1     2   516   513  1.651137148E+01 -2.255705079E+01 -1.679176430E+01  3.260995672E+01  3.371747881E-07  0.00000E+00  9.000E+00
</event>
<event>
      5  10001  2.02673E+08  2.38367E+01 -1.00000E+00  1.60278E-01
      21    -1     0     0   515   514  0.000000000E+00  0.000000000E+00  2.022487556E+02  2.022487556E+02  0.000000000E+00  0.00000E+00  9.000E+00
      21    -1     0     0   511   513  0.000000000E+00  0.000000000E+00 -3.053735562E+02  3.053735562E+02  0.000000000E+00  0.00000E+00  9.000E+00
      21     1     1     2   515   513  2.535262258E+01 -1.099704424E+01  2.141541898E+01  3.496155924E+01  1.118282261E-06  0.00000E+00  9.000E+00
      21     1     1     2   512   514 -4.900568706E+01  1.395010245E+01  1.698393486E+02  1.773177009E+02  1.907348633E-06  0.00000E+00  9.000E+00
      21     1     1     2   511   512  2.365306448E+01 -2.953058206E+00 -2.943795682E+02  2.953430517E+02  3.814697266E-06  0.00000E+00  9.000E+00
</event>
<event>
      5  10001  2.02673E+08  6.72498E+00 -1.00000E+00  2.17971E-01
      21    -1     0     0   516   512  0.000000000E+00  0.000000000E+00  3.888547800E+01  3.888547800E+01  0.000000000E+00  0.00000E+00  9.000E+00
      21    -1     0     0   511   517  0.000000000E+00  0.000000000E+00 -2.800343879E+01  2.800343879E+01  0.000000000E+00  0.00000E+00  9.000E+00
      21     1     1     2   516   517  2.899015200E+01  1.266202047E+01  8.440161705E+00  3.274128899E+01  6.848052319E-07  0.00000E+00  9.000E+00
      21     1     1     2   511   513 -2.234508458E+01 -1.451171319E+01  4.336619883E+00  2.699442344E+01  2.230201594E-07  0.00000E+00  9.000E+00
      21     1     1     2   513   512 -6.645067411E+00  1.849692721E+00 -1.894742378E+00  7.153204368E+00  1.775678290E-07  0.00000E+00  9.000E+00
</event>
<event>
      5  10001  2.02673E+08  1.34766E+01 -1.00000E+00  1.81830E-01
      21    -1     0     0   511   512  0.000000000E+00  0.000000000E+00  3.914083789E+01  3.914083789E+01  0.000000000E+00  0.00000E+00  9.000E+00
       1    -1     0     0   512     0  0.000000000E+00  0.000000000E+00 -1.249072399E+02  1.249072399E+02  0.000000000E+00  0.00000E+00  9.000E+00
      21     1     1     2   511   514  1.075973605E+01  1.590353414E-02  8.934064506E+00  1.398533808E+01  3.769728732E-07  0.00000E+00  9.000E+00
       1     1     1     2   513     0 -3.449834490E+01 -1.335387197E+01 -1.118998730E+02  1.178564897E+02  3.300000131E-01  0.00000E+00  9.000E+00
      21     1     1     2   514   513  2.373860886E+01  1.333796843E+01  1.719940650E+01  3.220624996E+01  1.039242493E-06  0.00000E+00  9.000E+00
</event>
<event>
      5  10001  2.02673E+08  1.50301E+01 -1.00000E+00  1.77254E-01
      21    -1     0     0   515   516  0.000000000E+00  0.000000000E+00  4.377231601E+01  4.377231601E+01  0.000000000E+00  0.00000E+00  9.000E+00
      21    -1     0     0   512   515  0.000000000E+00  0.000000000E+00 -8.709334941E+01  8.709334941E+01  0.000000000E+00  0.00000E+00  9.000E+00
      21     1     1     2   513   516 -2.277682556E+01 -2.681951990E+01  2.738506185E+01  4.458712867E+01  8.259061849E-07  0.00000E+00  9.000E+00
      21     1     1     2   512   511  1.600008817E+01  2.056884439E+01 -7.236243302E+01  7.691164992E+01  0.000000000E+00  0.00000E+00  9.000E+00
      21     1     1     2   511   513  6.776737397E+00  6.250675511E+00  1.656337776E+00  9.366886832E+00  2.220223013E-07  0.00000E+00  9.000E+00
</event>
<event>
      5  10001  2.02673E+08  1.21652E+01 -1.00000E+00  1.86353E-01
      21    -1     0     0   514   512  0.000000000E+00  0.000000000E+00  4.981669002E+01  4.981669002E+01  0.000000000E+00  0.00000E+00  9.000E+00
      21    -1     0     0   516   513  0.000000000E+00  0.000000000E+00 -2.371060604E+01  2.371060604E+01  0.000000000E+00  0.00000E+00  9.000E+00
      21     1     1     2   514   513 -3.106011011E+01 -1.529763295E+00  6.292086848E-01  3.110412383E+01  5.299348206E-07  0.00000E+00  9.000E+00
      21     1     1     2   515   512  1.533335885E+01 -6.782392684E-01  2.083447347E+01  2.587754214E+01  9.830249847E-07  0.00000E+00  9.000E+00
      21     1     1     2   516   515  1.572675126E+01  2.208002563E+00  4.642401827E+00  1.654563009E+01  6.136673773E-07  0.00000E+00  9.000E+00
</event>
<event>
      5  10001  2.02673E+08  2.05292E+01 -1.00000E+00  1.65398E-01
      21    -1     0     0   511   513  0.000000000E+00  0.000000000E+00  6.013431269E+00  6.013431269E+00  0.000000000E+00  0.00000E+00  9.000E+00
      21    -1     0     0   516   517  0.000000000E+00  0.000000000E+00 -1.898337676E+02  1.898337676E+02  0.000000000E+00  0.00000E+00  9.000E+00
      21     1     1     2   511   517 -2.551159725E+01 -1.203819816E+01 -6.928443535E+01  7.480703704E+01  1.651812370E-06  0.00000E+00  9.000E+00
      21     1     1     2   516   512  1.413389543E+01  2.053401988E+01 -7.128824255E+01  7.552103348E+01  0.000000000E+00  0.00000E+00  9.000E+00
      21     1     1     2   512   513  1.137770182E+01 -8.495821717E+00 -4.324765840E+01  4.551912832E+01  4.768371582E-07  0.00000E+00  9.000E+00
</event>
<event>
      5  10001  2.02673E+08  1.46382E+01 -1.00000E+00  1.78340E-01
       2    -1     0     0   511     0  0.000000000E+00  0.000000000E+00  1.036620857E+02  1.036620857E+02  0.000000000E+00  0.00000E+00  9.000E+00
      21    -1     0     0   514   511  0.000000000E+00  0.000000000E+00 -4.330957236E+01  4.330957236E+01  0.000000000E+00  0.00000E+00  9.000E+00
      21     1     1     2   514   515 -3.506096535E+00 -1.264617761E+01 -2.083545516E+01  2.462386470E+01  5.331201500E-07  0.00000E+00  9.000E+00
       2     1     1     2   512     0 -4.709990041E+00  3.129102319E+01  9.338504263E+01  9.860115225E+01  3.300000131E-01  0.00000E+00  9.000E+00
      21     1     1     2   515   512  8.216086576E+00 -1.864484558E+01 -1.219707415E+01  2.374664109E+01  3.769728732E-07  0.00000E+00  9.000E+00
</event>
<event>
      5  10001  2.02673E+08  1.88803E+01 -1.00000E+00  1.68418E-01
      21    -1     0     0   513   512  0.000000000E+00  0.000000000E+00  5.327207005E+00  5.327207005E+00  0.000000000E+00  0.00000E+00  9.000E+00
      21    -1     0     0   516   513  0.000000000E+00  0.000000000E+00 -6.311540760E+02  6.311540760E+02  0.000000000E+00  0.00000E+00  9.000E+00
      21     1     1     2   516   514  1.180224754E+01 -2.951876098E+01 -5.154131860E+02  5.163926825E+02  7.629394531E-06  0.00000E+00  9.000E+00
      21     1     1     2   511   512 -2.323938659E+01  2.311091595E+01 -6.463543781E+01  7.247015486E+01  1.651812370E-06  0.00000E+00  9.000E+00
      21     1     1     2   514   511  1.143713905E+01  6.407845022E+00 -4.577824526E+01  4.761844565E+01  6.743495762E-07  0.00000E+00  9.000E+00
</event>
<event>
      5  10001  2.02673E+08  9.02331E+00 -1.00000E+00  2.01001E-01
      21    -1     0     0   515   511  0.000000000E+00  0.000000000E+00  4.818078370E+01  4.818078370E+01  0.000000000E+00  0.00000E+00  9.000E+00
      21    -1     0     0   514   517  0.000000000E+00  0.000000000E+00 -2.046085590E+02  2.046085590E+02  0.000000000E+00  0.00000E+00  9.000E+00
      21     1     1     2   515   517 -3.600021872E+01  1.484968556E+01  3.681022920E+01  5.358658305E+01  0.000000000E+00  0.00000E+00  9.000E+00
      21     1     1     2   512   511  2.851394488E+01 -1.879893964E+01 -1.817628883E+02  1.849437556E+02  2.697398305E-06  0.00000E+00  9.000E+00
      21     1     1     2   514   512  7.486273844E+00  3.949254085E+00 -1.147511616E+01  1.425900399E+01  0.000000000E+00  0.00000E+00  9.000E+00
</event>
<event>
      5  10001  2.02673E+08  3.54413E+01 -1.00000E+00  1.48144E-01
      21    -1     0     0   512   511  0.000000000E+00  0.000000000E+00  8.691683507E+02  8.691683507E+02  0.000000000E+00  0.00000E+00  9.000E+00
       2    -1     0     0   515     0  0.000000000E+00  0.000000000E+00 -7.691518039E+02  7.691518039E+02  0.000000000E+00  0.00000E+00  9.000E+00
      21     1     1     2   512   513  1.302178351E+01  7.786225260E+01  8.636705919E+02  8.672710007E+02  1.078959322E-05  0.00000E+00  9.000E+00
       2     1     1     2   513     0 -4.111741266E+01 -5.625845390E+01 -4.437656621E+02  4.492034361E+02  3.300000131E-01  0.00000E+00  9.000E+00
      21     1     1     2   515   511  2.809562915E+01 -2.160379870E+01 -3.198883831E+02  3.218457179E+02  0.000000000E+00  0.00000E+00  9.000E+00
</event>
<event>
      5  10001  2.02673E+08  2.29387E+01 -1.00000E+00  1.61563E-01
      -1    -1     0     0     0   511  0.000000000E+00  0.000000000E+00  3.646582441E+02  3.646582441E+02  0.000000000E+00  0.00000E+00  9.000E+00
      -3    -1     0     0     0   512  0.000000000E+00  0.000000000E+00 -4.149127808E+01  4.149127808E+01  0.000000000E+00  0.00000E+00  9.000E+00
      -3     1     1     2     0   511 -4.705108528E+01 -2.420418124E+00 -2.519479490E+01  5.342930600E+01  5.000000000E-01  0.00000E+00  9.000E+00
      21     1     1     2   513   512  2.895774633E+01  1.555168590E+01  2.146071886E+02  2.171097681E+02  0.000000000E+00  0.00000E+00  9.000E+00
      -1     1     1     2     0   513  1.809333895E+01 -1.313126778E+01  1.337545723E+02  1.356104481E+02  3.300000131E-01  0.00000E+00  9.000E+00
</event>
<event>
      5  10001  2.02673E+08  4.40783E+01 -1.00000E+00  1.42243E-01
      21    -1     0     0   513   511  0.000000000E+00  0.000000000E+00  2.164762258E+00  2.164762258E+00  0.000000000E+00  0.00000E+00  9.000E+00
       2    -1     0     0   511     0  0.000000000E+00  0.000000000E+00 -7.420275626E+02  7.420275626E+02  0.000000000E+00  0.00000E+00  9.000E+00
      21     1     1     2   513   514  1.711937424E+01  1.286126804E+01 -1.348619286E+02  1.365511808E+02  1.907348633E-06  0.00000E+00  9.000E+00
       2     1     1     2   512     0 -6.427770270E+00 -1.467810273E+01 -5.819067873E+02  5.821274610E+02  3.300000131E-01  0.00000E+00  9.000E+00
      21     1     1     2   514   512 -1.069160397E+01  1.816834690E+00 -2.309408447E+01  2.551368302E+01  5.840038640E-07  0.00000E+00  9.000E+00
</event>
<event>
      5  10001  2.02673E+08  3.43479E+01 -1.00000E+00  1.49033E-01
      21    -1     0     0   515   512  0.000000000E+00  0.000000000E+00  2.986698164E+01  2.986698164E+01  0.000000000E+00  0.00000E+00  9.000E+00
      21    -1     0     0   511   515  0.000000000E+00  0.000000000E+00 -7.648450415E+01  7.648450415E+01  0.000000000E+00  0.00000E+00  9.000E+00
      21     1     1     2   511   516 -2.465683324E+01 -1.969308905E+01 -5.499115152E+01  6.340192369E+01  9.536743164E-07  0.00000E+00  9.000E+00
       3     1     1     2   516     0  1.939483807E+01 -4.419255525E-01 -2.323186203E+00  1.954487749E+01  5.000000000E-01  0.00000E+00  9.000E+00
      -3     1     1     2     0   512  5.261995174E+00  2.013501461E+01  1.069681522E+01  2.340468462E+01  5.000000000E-01  0.00000E+00  9.000E+00
</event>
<event>
      5  10001  2.02673E+08  1.23789E+01 -1.00000E+00  1.85568E-01
      21    -1     0     0   513   514  0.000000000E+00  0.000000000E+00  7.975740055E+01  7.975740055E+01  0.000000000E+00  0.00000E+00  9.000E+00
      21    -1     0     0   511   512  0.000000000E+00  0.000000000E+00 -3.783826952E+01  3.783826952E+01  0.000000000E+00  0.00000E+00  9.000E+00
      21     1     1     2   513   512 -1.997977180E+01  4.226116931E+01 -8.295468164E+00  4.747644158E+01  8.429369702E-07  0.00000E+00  9.000E+00
      21     1     1     2   511   515  5.373122999E+00 -2.554687934E+01  3.270922676E+01  4.184981494E+01  1.168007728E-06  0.00000E+00  9.000E+00
      21     1     1     2   515   514  1.460664881E+01 -1.671428997E+01  1.750537244E+01  2.826941355E+01  9.233911863E-07  0.00000E+00  9.000E+00
</event>
<event>
      5  10001  2.02673E+08  1.44920E+01 -1.00000E+00  1.78757E-01
       2    -1     0     0   511     0  0.000000000E+00  0.000000000E+00  1.242421049E+03  1.242421049E+03  0.000000000E+00  0.00000E+00  9.000E+00
      21    -1     0     0   515   516  0.000000000E+00  0.000000000E+00 -6.140770781E+00  6.140770781E+00  0.000000000E+00  0.00000E+00  9.000E+00
      21     1     1     2   511   516 -9.797434694E+00  3.209004343E+01  4.405911439E+01  5.538019660E+01  2.977847099E-06  0.00000E+00  9.000E+00
       2     1     1     2   512     0  9.789138291E+00 -1.859711384E+01  1.071934806E+03  1.072140857E+03  3.300000131E-01  0.00000E+00  9.000E+00
      21     1     1     2   515   512  8.296403013E-03 -1.349292959E+01  1.202863579E+02  1.210407663E+02  0.000000000E+00  0.00000E+00  9.000E+00
</event>
<event>
      5  10001  2.02673E+08  8.02316E+00 -1.00000E+00  2.07441E-01
       1    -1     0     0   514     0  0.000000000E+00  0.000000000E+00  5.126091703E+02  5.126091703E+02  0.000000000E+00  0.00000E+00  9.000E+00
      21    -1     0     0   513   511  0.000000000E+00  0.000000000E+00 -3.728479041E+00  3.728479041E+00  0.000000000E+00  0.00000E+00  9.000E+00
      21     1     1     2   514   512 -1.077803415E+01  3.395304550E+01  1.404379623E+02  1.448854602E+02  1.907348633E-06  0.00000E+00  9.000E+00
       1     1     1     2   513     0  1.060100299E+01 -2.593197534E+01  3.524307340E+02  3.535426138E+02  3.300000131E-01  0.00000E+00  9.000E+00
      21     1     1     2   512   511  1.770311550E-01 -8.021070164E+00  1.601199498E+01  1.790957537E+01  2.384185791E-07  0.00000E+00  9.000E+00
</event>
<event>
      5  10001  2.02673E+08  9.18365E+00 -1.00000E+00  2.00071E-01
      21    -1     0     0   515   511  0.000000000E+00  0.000000000E+00  1.617169127E+02  1.617169127E+02  0.000000000E+00  0.00000E+00  9.000E+00
      21    -1     0     0   512   513  0.000000000E+00  0.000000000E+00 -2.224988964E+01  2.224988964E+01  0.000000000E+00  0.00000E+00  9.000E+00
      21     1     1     2   515   516 -3.747364152E+01  2.493161520E+01  1.147382005E+02  1.232506142E+02  1.907348633E-06  0.00000E+00  9.000E+00
      21     1     1     2   512   511  3.152579704E+01 -3.192893893E+01  2.530615532E+01  5.151441078E+01  1.651812370E-06  0.00000E+00  9.000E+00
      21     1     1     2   516   513  5.947844476E+00  6.997323731E+00 -5.773327817E-01  9.201777352E+00  2.361963314E-07  0.00000E+00  9.000E+00
</event>
<event>
      5  10001  2.02673E+08  2.40091E+01 -1.00000E+00  1.60039E-01
      21    -1     0     0   514   511  0.000000000E+00  0.000000000E+00  5.769282663E+00  5.769282663E+00  0.000000000E+00  0.00000E+00  9.000E+00
      -2    -1     0     0     0   513  0.000000000E+00  0.000000000E+00 -3.279335224E+02  3.279335224E+02  0.000000000E+00  0.00000E+00  9.000E+00
      -2     1     1     2     0   511  2.843975694E+01  1.742902261E+00 -2.376150112E+02  2.393174877E+02  3.300000131E-01  0.00000E+00  9.000E+00
      21     1     1     2   512   513 -2.113039789E+01  1.334541578E+01 -4.606764858E+01  5.241013340E+01  1.348699152E-06  0.00000E+00  9.000E+00
      21     1     1     2   514   512 -7.309359046E+00 -1.508831804E+01 -3.848157998E+01  4.197518396E+01  0.000000000E+00  0.00000E+00  9.000E+00
</event>
<event>
      5  10001  2.02673E+08  2.01523E+01 -1.00000E+00  1.66056E-01
       2    -1     0     0   513     0  0.000000000E+00  0.000000000E+00  1.624393076E+02  1.624393076E+02  0.000000000E+00  0.00000E+00  9.000E+00
      21    -1     0     0   512   513  0.000000000E+00  0.000000000E+00 -1.831129308E+01  1.831129308E+01  0.000000000E+00  0.00000E+00  9.000E+00
      21     1     1     2   511   514  2.314232210E+01 -4.340443652E+00 -2.228529457E+00  2.365106481E+01  2.169641819E-07  0.00000E+00  9.000E+00
       2     1     1     2   514     0 -2.718044691E+01  2.080713514E+01  1.262008937E+02  1.307611870E+02  3.300000131E-01  0.00000E+00  9.000E+00
      21     1     1     2   512   511  4.038124817E+00 -1.646669149E+01  2.015565031E+01  2.633834885E+01  4.768371582E-07  0.00000E+00  9.000E+00
</event>
<event>
      5  10001  2.02673E+08  3.63767E+01 -1.00000E+00  1.47412E-01
      21    -1     0     0   515   514  0.000000000E+00  0.000000000E+00  2.458586965E+02  2.458586965E+02  0.000000000E+00  0.00000E+00  9.000E+00
       1    -1     0     0   512     0  0.000000000E+00  0.000000000E+00 -2.804431736E+02  2.804431736E+02  0.000000000E+00  0.00000E+00  9.000E+00
      21     1     1     2   515   511  1.232704533E+02 -3.807210707E+01  8.436358296E+01  1.541502647E+02  1.907348633E-06  0.00000E+00  9.000E+00
      21     1     1     2   512   514 -9.329082950E+01  5.867517568E+01  1.008354232E+02  1.493778353E+02  0.000000000E+00  0.00000E+00  9.000E+00
       1     1     1     2   511     0 -2.997962378E+01 -2.060306861E+01 -2.197834832E+02  2.227737701E+02  3.300000131E-01  0.00000E+00  9.000E+00
</event>
<event>
      5  10001  2.02673E+08  9.44583E+00 -1.00000E+00  1.98603E-01
      21    -1     0     0   513   512  0.000000000E+00  0.000000000E+00  6.786243320E+00  6.786243320E+00  0.000000000E+00  0.00000E+00  9.000E+00
       2    -1     0     0   511     0  0.000000000E+00  0.000000000E+00 -1.409895294E+02  1.409895294E+02  0.000000000E+00  0.00000E+00  9.000E+00
      21     1     1     2   511   514 -2.376702810E+01  1.563633072E+01 -4.661802266E+01  5.461324473E+01  6.743495762E-07  0.00000E+00  9.000E+00
       2     1     1     2   513     0  2.341997798E+01 -1.339675155E+01 -6.382406175E+01  6.929349233E+01  3.300000131E-01  0.00000E+00  9.000E+00
      21     1     1     2   514   512  3.470501182E-01 -2.239579177E+00 -2.376120170E+01  2.386903569E+01  3.371747881E-07  0.00000E+00  9.000E+00
</event>
<event>
      5  10001  2.02673E+08  1.08021E+01 -1.00000E+00  1.91906E-01
      21    -1     0     0   514   511  0.000000000E+00  0.000000000E+00  3.165407525E+02  3.165407525E+02  0.000000000E+00  0.00000E+00  9.000E+00
       2    -1     0     0   511     0  0.000000000E+00  0.000000000E+00 -8.752580908E+00  8.752580908E+00  0.000000000E+00  0.00000E+00  9.000E+00
      21     1     1     2   514   515 -1.645113409E+01  2.592005916E+01  2.761168975E+02  2.778183406E+02  3.814697266E-06  0.00000E+00  9.000E+00
       2     1     1     2   513     0  1.228453561E+01 -1.298462534E+01  6.789290299E+00  1.912364173E+01  3.300000131E-01  0.00000E+00  9.000E+00
      21     1     1     2   515   513  4.166598481E+00 -1.293543383E+01  2.488198377E+01  2.835135107E+01  4.768371582E-07  0.00000E+00  9.000E+00
</event>
<event>
      5  10001  2.02673E+08  1.79014E+01 -1.00000E+00  1.70398E-01
      21    -1     0     0   512   513  0.000000000E+00  0.000000000E+00  3.925370683E+02  3.925370683E+02  0.000000000E+00  0.00000E+00  9.000E+00
      21    -1     0     0   511   516  0.000000000E+00  0.000000000E+00 -4.291895371E+00  4.291895371E+00  0.000000000E+00  0.00000E+00  9.000E+00
      21     1     1     2   512   516 -2.409073602E+01 -1.775986700E+01  2.916453796E+02  2.931770862E+02  5.394796609E-06  0.00000E+00  9.000E+00
      21     1     1     2   514   513  7.445420680E+00  1.565465607E+01  2.721206385E+01  3.226451557E+01  1.348699152E-06  0.00000E+00  9.000E+00
      21     1     1     2   511   514  1.664531534E+01  2.105210936E+00  6.938772946E+01  7.138736187E+01  1.348699152E-06  0.00000E+00  9.000E+00
</event>
<event>
      5  10001  2.02673E+08  9.07638E+01 -1.00000E+00  1.25728E-01
      21    -1     0     0   515   514  0.000000000E+00  0.000000000E+00  1.804847858E+02  1.804847858E+02  0.000000000E+00  0.00000E+00  9.000E+00
      21    -1     0     0   511   517  0.000000000E+00  0.000000000E+00 -4.007228883E+01  4.007228883E+01  0.000000000E+00  0.00000E+00  9.000E+00
      21     1     1     2   515   517 -2.054076736E+01  4.423913220E+01  6.531871565E+01  8.152029536E+01  9.536743164E-07  0.00000E+00  9.000E+00
      21     1     1     2   512   514 -2.606989122E+01 -5.490733839E+01  1.568045855E+01  6.277206240E+01  5.591411304E-07  0.00000E+00  9.000E+00
      21     1     1     2   511   512  4.661065857E+01  1.066820619E+01  5.941332273E+01  7.626471684E+01  6.743495762E-07  0.00000E+00  9.000E+00
</event>
<event>
      5  10001  2.02673E+08  2.78790E+01 -1.00000E+00  1.55249E-01
      21    -1     0     0   511   512  0.000000000E+00  0.000000000E+00  1.833363740E+02  1.833363740E+02  0.000000000E+00  0.00000E+00  9.000E+00
      21    -1     0     0   513   514  0.000000000E+00  0.000000000E+00 -1.732427515E+02  1.732427515E+02  0.000000000E+00  0.00000E+00  9.000E+00
      21     1     1     2   513   512 -4.895428451E+00 -2.655126560E+01  1.745455865E+02  1.766213370E+02  3.303624740E-06  0.00000E+00  9.000E+00
       3     1     1     2   511     0 -2.246411594E+01  3.190667664E+01 -5.794117892E+01  6.985773209E+01  5.000000000E-01  0.00000E+00  9.000E+00
      -3     1     1     2     0   514  2.735954439E+01 -5.355411035E+00 -1.065107851E+02  1.101000564E+02  5.000000000E-01  0.00000E+00  9.000E+00
</event>
<event>
      5  10001  2.02673E+08  1.90750E+01 -1.00000E+00  1.68041E-01
      21    -1     0     0   514   513  0.000000000E+00  0.000000000E+00  2.476647854E+00  2.476647854E+00  0.000000000E+00  0.00000E+00  9.000E+00
      -1    -1     0     0     0   514  0.000000000E+00  0.000000000E+00 -5.434840992E+02  5.434840992E+02  0.000000000E+00  0.00000E+00  9.000E+00
      -1     1     1     2     0   515  1.777477958E+01 -1.806187125E+01 -2.965572591E+02  2.976381877E+02  3.300000131E-01  0.00000E+00  9.000E+00
      21     1     1     2   511   513 -2.767575005E+01  1.915959367E+01 -1.829482223E+02  1.860190560E+02  2.697398305E-06  0.00000E+00  9.000E+00
      21     1     1     2   515   511  9.900970466E+00 -1.097722424E+00 -6.150196995E+01  6.230350326E+01  0.000000000E+00  0.00000E+00  9.000E+00
</event>
<event>
      5  10001  2.02673E+08  4.81314E+01 -1.00000E+00  1.39997E-01
      21    -1     0     0   512   511  0.000000000E+00  0.000000000E+00  1.898668687E+02  1.898668687E+02  0.000000000E+00  0.00000E+00  9.000E+00
      21    -1     0     0   515   516  0.000000000E+00  0.000000000E+00 -8.178379888E+00  8.178379888E+00  0.000000000E+00  0.00000E+00  9.000E+00
      21     1     1     2   512   516  1.037427818E+01 -1.735716965E+01  3.066497947E+01  3.673197452E+01  1.011524364E-06  0.00000E+00  9.000E+00
      21     1     1     2   513   511 -3.236642509E-01  9.080244961E+00  1.475612593E+02  1.478407280E+02  1.907348633E-06  0.00000E+00  9.000E+00
      21     1     1     2   515   513 -1.005061393E+01  8.276924693E+00  3.462250058E+00  1.347254609E+01  7.748603821E-07  0.00000E+00  9.000E+00
</event>
<event>
      5  10001  2.02673E+08  6.37076E+00 -1.00000E+00  2.21427E-01
      21    -1     0     0   512   511  0.000000000E+00  0.000000000E+00  7.138244118E+00  7.138244118E+00  0.000000000E+00  0.00000E+00  9.000E+00
       1    -1     0     0   513     0  0.000000000E+00  0.000000000E+00 -3.121979336E+02  3.121979336E+02  0.000000000E+00  0.00000E+00  9.000E+00
      21     1     1     2   513   511  2.816955527E+01  5.976547782E-01 -4.937172712E+01  5.684583076E+01  9.536743164E-07  0.00000E+00  9.000E+00
       1     1     1     2   514     0 -3.449711080E+01  1.423300501E-01 -2.533748752E+02  2.557127435E+02  3.300000131E-01  0.00000E+00  9.000E+00
      21     1     1     2   512   514  6.327555528E+00 -7.399848283E-01 -2.313087184E+00  6.777603472E+00  2.980232239E-08  0.00000E+00  9.000E+00
</event>
<event>
      5  10001  2.02673E+08  1.68711E+01 -1.00000E+00  1.72660E-01
       1    -1     0     0   515     0  0.000000000E+00  0.000000000E+00  2.659083651E+02  2.659083651E+02  0.000000000E+00  0.00000E+00  9.000E+00
      21    -1     0     0   512   511  0.000000000E+00  0.000000000E+00 -1.468646101E+02  1.468646101E+02  0.000000000E+00  0.00000E+00  9.000E+00
      21     1     1     2   515   514  1.677118001E-01 -3.609215989E+01  2.354765474E+01  4.309482773E+01  8.259061849E-07  0.00000E+00  9.000E+00
       1     1     1     2   512     0  1.141078470E+01  4.836294487E+01  2.293975831E+02  2.347180020E+02  3.300000131E-01  0.00000E+00  9.000E+00
      21     1     1     2   514   511 -1.157849650E+01 -1.227078497E+01 -1.339014829E+02  1.349601454E+02  1.907348633E-06  0.00000E+00  9.000E+00
</event>
<event>
      5  10001  2.02673E+08  1.35471E+01 -1.00000E+00  1.81606E-01
      21    -1     0     0   512   514  0.000000000E+00  0.000000000E+00  1.145294771E+02  1.145294771E+02  0.000000000E+00  0.00000E+00  9.000E+00
       2    -1     0     0   515     0  0.000000000E+00  0.000000000E+00 -7.359783805E+01  7.359783805E+01  0.000000000E+00  0.00000E+00  9.000E+00
      21     1     1     2   512   513 -1.603437681E+01  3.269473278E+01  1.034990527E+02  1.097182788E+02  0.000000000E+00  0.00000E+00  9.000E+00
       2     1     1     2   513     0  3.740234798E+00 -2.700471333E+01 -5.804111282E+01  6.412584171E+01  3.300000131E-01  0.00000E+00  9.000E+00
      21     1     1     2   515   514  1.229414201E+01 -5.690019451E+00 -4.526300850E+00  1.428319462E+01  1.788139343E-07  0.00000E+00  9.000E+00
</event>
<event>
      5  10001  2.02673E+08  9.24166E+01 -1.00000E+00  1.25365E-01
      21    -1     0     0   513   514  0.000000000E+00  0.000000000E+00  3.389814201E+01  3.389814201E+01  0.000000000E+00  0.00000E+00  9.000E+00
       2    -1     0     0   514     0  0.000000000E+00  0.000000000E+00 -1.580097207E+02  1.580097207E+02  0.000000000E+00  0.00000E+00  9.000E+00
      21     1     1     2   513   511  4.834840766E+01  1.943451839E+01 -2.089727468E+01  5.614236473E+01  6.743495762E-07  0.00000E+00  9.000E+00
      21     1     1     2   511   512  2.438116366E-01 -3.317258827E+01 -2.093892686E+01  3.922905447E+01  1.143415337E-06  0.00000E+00  9.000E+00
       2     1     1     2   512     0 -4.859221929E+01  1.373806988E+01 -8.227537716E+01  9.653644351E+01  3.300000131E-01  0.00000E+00  9.000E+00
</event>
<event>
      5  10001  2.02673E+08  2.81066E+01 -1.00000E+00  1.54997E-01
      21    -1     0     0   515   511  0.000000000E+00  0.000000000E+00  8.154825942E+01  8.154825942E+01  0.000000000E+00  0.00000E+00  9.000E+00
      21    -1     0     0   514   516  0.000000000E+00  0.000000000E+00 -1.926683742E+02  1.926683742E+02  0.000000000E+00  0.00000E+00  9.000E+00
      21     1     1     2   515   516  1.616338982E+01 -3.540270317E+01 -1.809235896E+02  1.850620216E+02  0.000000000E+00  0.00000E+00  9.000E+00
      21     1     1     2   514   513  7.322599763E+00  2.614019787E+01  5.064546099E+01  5.746210169E+01  2.431401974E-06  0.00000E+00  9.000E+00
      21     1     1     2   513   511 -2.348598958E+01  9.262505301E+00  1.915801389E+01  3.169251027E+01  1.168007728E-06  0.00000E+00  9.000E+00
</event>
<event>
      5  10001  2.02673E+08  1.81125E+01 -1.00000E+00  1.69958E-01
       1    -1     0     0   514     0  0.000000000E+00  0.000000000E+00  9.769456883E+02  9.769456883E+02  0.000000000E+00  0.00000E+00  9.000E+00
      21    -1     0     0   515   513  0.000000000E+00  0.000000000E+00 -6.013301531E+01  6.013301531E+01  0.000000000E+00  0.00000E+00  9.000E+00
      21     1     1     2   514   513  5.980254764E+00 -4.008675106E+01  1.348782867E+02  1.408362995E+02  1.907348633E-06  0.00000E+00  9.000E+00
       1     1     1     2   512     0 -1.155592067E+01  2.285377044E+01  8.374526953E+02  8.378442337E+02  3.300000131E-01  0.00000E+00  9.000E+00
      21     1     1     2   515   512  5.575665902E+00  1.723298062E+01 -5.551830899E+01  5.839817038E+01  2.132480600E-06  0.00000E+00  9.000E+00
</event>
<event>
      5  10001  2.02673E+08  3.37764E+01 -1.00000E+00  1.49514E-01
       2    -1     0     0   513     0  0.000000000E+00  0.000000000E+00  1.380157946E+02  1.380157946E+02  0.000000000E+00  0.00000E+00  9.000E+00
      21    -1     0     0   511   512  0.000000000E+00  0.000000000E+00 -3.596321696E+01  3.596321696E+01  0.000000000E+00  0.00000E+00  9.000E+00
      21     1     1     2   513   514 -9.221608488E+00 -1.022587416E+01 -2.054363754E+01  2.473151044E+01  9.830249847E-07  0.00000E+00  9.000E+00
       2     1     1     2   511     0  3.067425362E+01 -8.004374390E+00  1.161061855E+02  1.203566993E+02  3.300000131E-01  0.00000E+00  9.000E+00
      21     1     1     2   514   512 -2.145264513E+01  1.823024855E+01  6.490029652E+00  2.889080183E+01  2.920019320E-07  0.00000E+00  9.000E+00
</event>
<event>
      5  10001  2.02673E+08  6.75485E+00 -1.00000E+00  2.17692E-01
      21    -1     0     0   513   511  0.000000000E+00  0.000000000E+00  1.341498568E+02  1.341498568E+02  0.000000000E+00  0.00000E+00  9.000E+00
      21    -1     0     0   514   516  0.000000000E+00  0.000000000E+00 -1.385373563E+01  1.385373563E+01  0.000000000E+00  0.00000E+00  9.000E+00
      21     1     1     2   515   516 -2.779030563E+01 -2.095698824E+01  7.677902148E+01  8.430014581E+01  1.651812370E-06  0.00000E+00  9.000E+00
      21     1     1     2   514   511  2.533197171E+01  2.724861622E+01  2.733187422E+01  4.616521661E+01  4.768371582E-07  0.00000E+00  9.000E+00
      21     1     1     2   513   515  2.458333914E+00 -6.291627974E+00  1.618522544E+01  1.753822998E+01  2.384185791E-07  0.00000E+00  9.000E+00
</event>
<event>
      5  10001  2.02673E+08  1.06720E+01 -1.00000E+00  1.92491E-01
      21    -1     0     0   512   514  0.000000000E+00  0.000000000E+00  6.252477055E+01  6.252477055E+01  0.000000000E+00  0.00000E+00  9.000E+00
      21    -1     0     0   517   515  0.000000000E+00  0.000000000E+00 -4.715653290E+01  4.715653290E+01  0.000000000E+00  0.00000E+00  9.000E+00
      21     1     1     2   512   515  2.531157594E+01 -2.501719484E+01  4.607808705E+01  5.822135364E+01  0.000000000E+00  0.00000E+00  9.000E+00
      21     1     1     2   511   514 -2.720567060E+01  2.298404885E+01 -2.096640108E+01  4.132801700E+01  2.384185791E-07  0.00000E+00  9.000E+00
      21     1     1     2   517   511  1.894094665E+00  2.033145983E+00 -9.743448322E+00  1.013193281E+01  1.192092896E-07  0.00000E+00  9.000E+00
</event>
<event>
      5  10001  2.02673E+08  1.14898E+01 -1.00000E+00  1.88980E-01
      21    -1     0     0   511   512  0.000000000E+00  0.000000000E+00  3.079334169E+01  3.079334169E+01  0.000000000E+00  0.00000E+00  9.000E+00
       2    -1     0     0   514     0  0.000000000E+00  0.000000000E+00 -2.343952859E+02  2.343952859E+02  0.000000000E+00  0.00000E+00  9.000E+00
      21     1     1     2   511   513  3.409427914E+01  6.067842191E+01 -6.401884018E+01  9.456586410E+01  1.651812370E-06  0.00000E+00  9.000E+00
       2     1     1     2   513     0 -2.402746365E+01 -6.621688851E+01 -1.423311759E+02  1.588089036E+02  3.300000131E-01  0.00000E+00  9.000E+00
      21     1     1     2   514   512 -1.006681550E+01  5.538466597E+00  2.748071857E+00  1.181385989E+01  1.908279728E-07  0.00000E+00  9.000E+00
</event>
<event>
      5  10001  2.02673E+08  1.63220E+01 -1.00000E+00  1.73951E-01
      21    -1     0     0   515   513  0.000000000E+00  0.000000000E+00  9.765223244E+01  9.765223244E+01  0.000000000E+00  0.00000E+00  9.000E+00
      21    -1     0     0   512   515  0.000000000E+00  0.000000000E+00 -9.584374776E+01  9.584374776E+01  0.000000000E+00  0.00000E+00  9.000E+00
      21     1     1     2   512   514 -2.185317658E+01  3.392364979E+01 -8.398201094E+01  9.317378120E+01  1.348699152E-06  0.00000E+00  9.000E+00
      21     1     1     2   514   511  2.746911295E+01 -1.981670954E+01  7.297725658E+01  8.045454693E+01  9.536743164E-07  0.00000E+00  9.000E+00
      21     1     1     2   511   513 -5.615936367E+00 -1.410694025E+01  1.281323904E+01  1.986765208E+01  4.460403188E-07  0.00000E+00  9.000E+00
</event>
<event>
      5  10001  2.02673E+08  1.56212E+01 -1.00000E+00  1.75693E-01
      21    -1     0     0   516   511  0.000000000E+00  0.000000000E+00  4.083665787E+02  4.083665787E+02  0.000000000E+00  0.00000E+00  9.000E+00
      21    -1     0     0   513   516  0.000000000E+00  0.000000000E+00 -1.360668917E+01  1.360668917E+01  0.000000000E+00  0.00000E+00  9.000E+00
      21     1     1     2   517   511 -2.842042286E+01 -3.585341529E+01  3.316760309E+02  3.348166323E+02  3.814697266E-06  0.00000E+00  9.000E+00
      21     1     1     2   513   512  1.909055718E+01  3.282525052E+01  1.989733154E+01  4.287015568E+01  5.840038640E-07  0.00000E+00  9.000E+00
      21     1     1     2   512   517  9.329865673E+00  3.028164768E+00  4.318652708E+01  4.428647984E+01  4.768371582E-07  0.00000E+00  9.000E+00
</event>
<event>
      5  10001  2.02673E+08  4.81439E+01 -1.00000E+00  1.39990E-01
      21    -1     0     0   514   512  0.000000000E+00  0.000000000E+00  9.135774473E+00  9.135774473E+00  0.000000000E+00  0.00000E+00  9.000E+00
      21    -1     0     0   515   514  0.000000000E+00  0.000000000E+00 -1.297435464E+02  1.297435464E+02  0.000000000E+00  0.00000E+00  9.000E+00
      21     1     1     2   513   512  2.620513238E+00  1.465123901E+01 -1.509223448E+01  2.119673172E+01  3.371747881E-07  0.00000E+00  9.000E+00
      21     1     1     2   515   511 -2.164568336E+01 -1.141473335E+00 -8.094826178E+01  8.380011728E+01  0.000000000E+00  0.00000E+00  9.000E+00
      21     1     1     2   511   513  1.902517012E+01 -1.350976568E+01 -2.456727568E+01  3.388247188E+01  6.743495762E-07  0.00000E+00  9.000E+00
</event>
<event>
      5  10001  2.02673E+08  2.64031E+01 -1.00000E+00  1.56958E-01
      21    -1     0     0   511   515  0.000000000E+00  0.000000000E+00  3.022350523E+02  3.022350523E+02  0.000000000E+00  0.00000E+00  9.000E+00
      -2    -1     0     0     0   513  0.000000000E+00  0.000000000E+00 -2.231515236E+01  2.231515236E+01  0.000000000E+00  0.00000E+00  9.000E+00
      -2     1     1     2     0   512 -3.688419959E+01  1.259161897E+00  5.601638937E+00  3.732983963E+01  3.300000131E-01  0.00000E+00  9.000E+00
      21     1     1     2   511   513  2.592280674E+01 -1.137557931E+01  2.702918236E+02  2.717702442E+02  6.607249480E-06  0.00000E+00  9.000E+00
      21     1     1     2   512   515  1.096139286E+01  1.011641741E+01  4.026437339E+00  1.545012078E+01  1.576990671E-07  0.00000E+00  9.000E+00
</event>
<event>
      5  10001  2.02673E+08  1.84181E+01 -1.00000E+00  1.69334E-01
      21    -1     0     0   514   513  0.000000000E+00  0.000000000E+00  6.461220505E+00  6.461220505E+00  0.000000000E+00  0.00000E+00  9.000E+00
       2    -1     0     0   511     0  0.000000000E+00  0.000000000E+00 -7.091605343E+02  7.091605343E+02  0.000000000E+00  0.00000E+00  9.000E+00
      21     1     1     2   511   515  2.790574600E+01 -2.087779580E+01 -6.284493418E+01  7.186166412E+01  2.236564522E-06  0.00000E+00  9.000E+00
       2     1     1     2   514     0 -1.878817400E+01  3.688069952E+01 -5.705710622E+02  5.720704741E+02  3.300000131E-01  0.00000E+00  9.000E+00
      21     1     1     2   515   513 -9.117572002E+00 -1.600290372E+01 -6.928331746E+01  7.168961658E+01  0.000000000E+00  0.00000E+00  9.000E+00
</event>
<event>
      5  10001  2.02673E+08  7.43405E+00 -1.00000E+00  2.11857E-01
      21    -1     0     0   511   512  0.000000000E+00  0.000000000E+00  3.518733540E+01  3.518733540E+01  0.000000000E+00  0.00000E+00  9.000E+00
      21    -1     0     0   513   514  0.000000000E+00  0.000000000E+00 -2.112523350E+02  2.112523350E+02  0.000000000E+00  0.00000E+00  9.000E+00
      -3     1     1     2     0   514 -3.021329441E+01  2.371233825E+01 -1.890077331E+02  1.928711781E+02  5.000000000E-01  0.00000E+00  9.000E+00
      21     1     1     2   513   512  2.647240534E+01 -1.728829521E+01 -6.909825058E+00  3.236385450E+01  1.390207266E-06  0.00000E+00  9.000E+00
       3     1     1     2   511     0  3.740889070E+00 -6.424043036E+00  1.985255862E+01  2.120463779E+01  5.000000000E-01  0.00000E+00  9.000E+00
</event>
<event>
      5  10001  2.02673E+08  4.24920E+01 -1.00000E+00  1.43200E-01
      21    -1     0     0   515   512  0.000000000E+00  0.000000000E+00  1.727917351E+01  1.727917351E+01  0.000000000E+00  0.00000E+00  9.000E+00
      21    -1     0     0   516   515  0.000000000E+00  0.000000000E+00 -9.580458173E+01  9.580458173E+01  0.000000000E+00  0.00000E+00  9.000E+00
      21     1     1     2   513   512  3.156308178E+01 -9.549374352E+00 -1.936511008E+01  3.824168106E+01  4.129530925E-07  0.00000E+00  9.000E+00
      21     1     1     2   514   513 -7.341133195E+00  1.327351091E+01 -6.012796382E+00  1.631661879E+01  3.674277069E-07  0.00000E+00  9.000E+00
      21     1     1     2   516   514 -2.422194858E+01 -3.724136557E+00 -5.314750175E+01  5.852545539E+01  0.000000000E+00  0.00000E+00  9.000E+00
</event>
<event>
      5  10001  2.02673E+08  2.76724E+01 -1.00000E+00  1.55480E-01
      21    -1     0     0   513   514  0.000000000E+00  0.000000000E+00  3.555584377E+02  3.555584377E+02  0.000000000E+00  0.00000E+00  9.000E+00
      21    -1     0     0   512   517  0.000000000E+00  0.000000000E+00 -1.430259847E+02  1.430259847E+02  0.000000000E+00  0.00000E+00  9.000E+00
      21     1     1     2   511   517  1.573327023E+01  2.018376524E+01  2.841554750E+02  2.853055452E+02  0.000000000E+00  0.00000E+00  9.000E+00
      21     1     1     2   512   514 -3.898382450E+01 -5.177892809E+00 -1.368692299E+02  1.424069354E+02  3.303624740E-06  0.00000E+00  9.000E+00
      21     1     1     2   513   511  2.325055427E+01 -1.500587243E+01  6.524620795E+01  7.087194179E+01  9.536743164E-07  0.00000E+00  9.000E+00
</event>
<event>
      5  10001  2.02673E+08  1.66646E+01 -1.00000E+00  1.73138E-01
      21    -1     0     0   514   512  0.000000000E+00  0.000000000E+00  1.146519110E+02  1.146519110E+02  0.000000000E+00  0.00000E+00  9.000E+00
      21    -1     0     0   516   511  0.000000000E+00  0.000000000E+00 -8.075598491E+01  8.075598491E+01  0.000000000E+00  0.00000E+00  9.000E+00
      21     1     1     2   515   511 -4.928236374E+01 -2.296123760E+01 -4.618163727E+01  7.133521871E+01  1.348699152E-06  0.00000E+00  9.000E+00
      21     1     1     2   516   512  3.275114726E+01  2.085712497E+01 -3.372697588E+00  3.897476617E+01  4.500051996E-07  0.00000E+00  9.000E+00
      21     1     1     2   514   515  1.653121648E+01  2.104112628E+00  8.345026096E+01  8.509791104E+01  9.536743164E-07  0.00000E+00  9.000E+00
</event>
<event>
      5  10001  2.02673E+08  1.17420E+01 -1.00000E+00  1.87972E-01
      21    -1     0     0   513   512  0.000000000E+00  0.000000000E+00  6.071570022E+00  6.071570022E+00  0.000000000E+00  0.00000E+00  9.000E+00
      21    -1     0     0   511   513  0.000000000E+00  0.000000000E+00 -4.544113717E+02  4.544113717E+02  0.000000000E+00  0.00000E+00  9.000E+00
      21     1     1     2   516   512 -2.957215974E+01 -1.748623200E+01 -5.328169528E+01  6.339731850E+01  1.651812370E-06  0.00000E+00  9.000E+00
      21     1     1     2   517   516  2.720336904E+01  5.985631120E+00 -2.479445683E+02  2.495042285E+02  0.000000000E+00  0.00000E+00  9.000E+00
      21     1     1     2   511   517  2.368790698E+00  1.150060088E+01 -1.471135381E+02  1.475813948E+02  3.303624740E-06  0.00000E+00  9.000E+00
</event>
<event>
      5  10001  2.02673E+08  5.30348E+01 -1.00000E+00  1.37603E-01
      21    -1     0     0   511   514  0.000000000E+00  0.000000000E+00  1.758278767E+00  1.758278767E+00  0.000000000E+00  0.00000E+00  9.000E+00
       2    -1     0     0   512     0  0.000000000E+00  0.000000000E+00 -1.112191194E+03  1.112191194E+03  0.000000000E+00  0.00000E+00  9.000E+00
      21     1     1     2   513   514  1.223168773E+01  1.697860455E-01 -2.589494078E+02  2.592381893E+02  5.394796609E-06  0.00000E+00  9.000E+00
       2     1     1     2   511     0 -2.597549996E+01 -1.479929065E+01 -7.768653804E+02  7.774404632E+02  3.300000131E-01  0.00000E+00  9.000E+00
      21     1     1     2   512   513  1.374381223E+01  1.462950461E+01 -7.461812653E+01  7.727081976E+01  0.000000000E+00  0.00000E+00  9.000E+00
</event>
<event>
      5  10001  2.02673E+08  3.08130E+01 -1.00000E+00  1.52203E-01
      21    -1     0     0   515   513  0.000000000E+00  0.000000000E+00  1.062833009E+02  1.062833009E+02  0.000000000E+00  0.00000E+00  9.000E+00
      21    -1     0     0   512   515  0.000000000E+00  0.000000000E+00 -1.214110168E+02  1.214110168E+02  0.000000000E+00  0.00000E+00  9.000E+00
      21     1     1     2   516   513  5.498952781E+01 -6.183835524E+00  9.016412320E+01  1.057906286E+02  1.651812370E-06  0.00000E+00  9.000E+00
      21     1     1     2   511   516 -3.388941258E+01 -2.999398030E+00 -3.911938692E+01  5.184414245E+01  6.743495762E-07  0.00000E+00  9.000E+00
      21     1     1     2   512   511 -2.110011523E+01  9.183233554E+00 -6.617245217E+01  7.005954658E+01  1.651812370E-06  0.00000E+00  9.000E+00
</event>
<event>
      5  10001  2.02673E+08  6.45211E+00 -1.00000E+00  2.20606E-01
      21    -1     0     0   514   511  0.000000000E+00  0.000000000E+00  1.047072166E+01  1.047072166E+01  0.000000000E+00  0.00000E+00  9.000E+00
      21    -1     0     0   512   514  0.000000000E+00  0.000000000E+00 -5.064545510E+02  5.064545510E+02  0.000000000E+00  0.00000E+00  9.000E+00
      21     1     1     2   512   517  3.393395071E+01  1.404871528E+01 -4.515019891E+02  4.529932953E+02  9.344061824E-06  0.00000E+00  9.000E+00
      21     1     1     2   517   513 -3.274821341E+01 -1.756559884E+01 -2.667989824E+01  4.574727002E+01  8.920806376E-07  0.00000E+00  9.000E+00
      21     1     1     2   513   511 -1.185737298E+00  3.516883552E+00 -1.780194193E+01  1.818470729E+01  2.384185791E-07  0.00000E+00  9.000E+00
</event>
<event>
      5  10001  2.02673E+08  1.67015E+01 -1.00000E+00  1.73052E-01
       2    -1     0     0   515     0  0.000000000E+00  0.000000000E+00  4.341534223E+02  4.341534223E+02  0.000000000E+00  0.00000E+00  9.000E+00
      21    -1     0     0   513   514  0.000000000E+00  0.000000000E+00 -5.081907208E+01  5.081907208E+01  0.000000000E+00  0.00000E+00  9.000E+00
      21     1     1     2   512   514  2.831121908E+00  2.224244823E+00 -3.687719760E+00  5.153813473E+00  1.115100797E-07  0.00000E+00  9.000E+00
       2     1     1     2   513     0 -4.110813201E+01 -3.796775573E+01  4.161477674E+02  4.198934415E+02  3.300000131E-01  0.00000E+00  9.000E+00
      21     1     1     2   515   512  3.827701010E+01  3.574351091E+01 -2.912569739E+01  5.992523945E+01  2.023048729E-06  0.00000E+00  9.000E+00
</event>
<event>
      5  10001  2.02673E+08  4.74957E+01 -1.00000E+00  1.40331E-01
      -4    -1     0     0     0   511  0.000000000E+00  0.000000000E+00  1.158458705E+02  1.158458705E+02  0.000000000E+00  0.00000E+00  9.000E+00
      21    -1     0     0   512   515  0.000000000E+00  0.000000000E+00 -1.379826670E+01  1.379826670E+01  0.000000000E+00  0.00000E+00  9.000E+00
      -4     1     1     2     0   515 -2.637662568E+01 -3.252842845E+00  8.194119773E+01  8.615635354E+01  1.500000000E+00  0.00000E+00  9.000E+00
      21     1     1     2   513   511  9.879504814E+00  6.453930759E-01  2.432388240E+01  2.626161462E+01  0.000000000E+00  0.00000E+00  9.000E+00
      21     1     1     2   512   513  1.649712087E+01  2.607449769E+00 -4.217476378E+00  1.722616900E+01  5.022376641E-07  0.00000E+00  9.000E+00
</event>
<event>
      5  10001  2.02673E+08  7.84428E+00 -1.00000E+00  2.08726E-01
      21    -1     0     0   514   513  0.000000000E+00  0.000000000E+00  2.399058356E+01  2.399058356E+01  0.000000000E+00  0.00000E+00  9.000E+00
      21    -1     0     0   511   516  0.000000000E+00  0.000000000E+00 -2.976283701E+02  2.976283701E+02  0.000000000E+00  0.00000E+00  9.000E+00
      21     1     1     2   514   516  1.752914689E+01  3.465429862E+01 -1.275920507E+02  1.333713718E+02  1.907348633E-06  0.00000E+00  9.000E+00
      21     1     1     2   512   513 -1.089838341E+01 -3.046314480E+01  8.540708030E+00  3.346224209E+01  7.348554138E-07  0.00000E+00  9.000E+00
      21     1     1     2   511   512 -6.630763477E+00 -4.191153824E+00 -1.545864439E+02  1.547853398E+02  0.000000000E+00  0.00000E+00  9.000E+00
</event>
<event>
      5  10001  2.02673E+08  5.12588E+00 -1.00000E+00  2.36558E-01
      21    -1     0     0   512   511  0.000000000E+00  0.000000000E+00  7.143099021E+00  7.143099021E+00  0.000000000E+00  0.00000E+00  9.000E+00
      21    -1     0     0   515   512  0.000000000E+00  0.000000000E+00 -5.557228750E+02  5.557228750E+02  0.000000000E+00  0.00000E+00  9.000E+00
      21     1     1     2   513   511 -9.237218902E+00  4.894834633E+00 -7.837219105E+00  1.306551271E+01  8.429369702E-08  0.00000E+00  9.000E+00
       2     1     1     2   515     0  2.848358368E+01 -1.349019691E+01 -5.173547159E+02  5.183139115E+02  3.300000131E-01  0.00000E+00  9.000E+00
      -2     1     1     2     0   513 -1.924636478E+01  8.595362279E+00 -2.338784098E+01  3.148654976E+01  3.300000131E-01  0.00000E+00  9.000E+00
</event>
<event>
      5  10001  2.02673E+08  8.09105E+00 -1.00000E+00  2.06964E-01
      21    -1     0     0   514   511  0.000000000E+00  0.000000000E+00  2.274924507E+01  2.274924507E+01  0.000000000E+00  0.00000E+00  9.000E+00
      21    -1     0     0   516   514  0.000000000E+00  0.000000000E+00 -9.707914100E+01  9.707914100E+01  0.000000000E+00  0.00000E+00  9.000E+00
      21     1     1     2   516   513 -4.818580605E-01 -3.251298147E+01 -7.467384319E+01  8.144635663E+01  1.651812370E-06  0.00000E+00  9.000E+00
      21     1     1     2   513   512  4.930314379E+00  2.763967245E+01  7.077708432E+00  2.895433387E+01  1.267212130E-06  0.00000E+00  9.000E+00
      21     1     1     2   512   511 -4.448456318E+00  4.873309023E+00 -6.733761168E+00  9.427695578E+00  8.429369702E-08  0.00000E+00  9.000E+00
</event>
<event>
      5  10001  2.02673E+08  6.29454E+00 -1.00000E+00  2.22211E-01
       3    -1     0     0   513     0  0.000000000E+00  0.000000000E+00  2.089644580E+02  2.089644580E+02  0.000000000E+00  0.00000E+00  9.000E+00
      21    -1     0     0   515   514  0.000000000E+00  0.000000000E+00 -3.389086280E+01  3.389086280E+01  0.000000000E+00  0.00000E+00  9.000E+00
      21     1     1     2   513   514 -8.484163360E+00 -2.946972389E+01  8.309593612E+01  8.857415116E+01  1.348699152E-06  0.00000E+00  9.000E+00
       3     1     1     2   512     0  1.476313609E+01  2.991097228E+01  1.205206553E+02  1.250523682E+02  5.000000000E-01  0.00000E+00  9.000E+00
      21     1     1     2   515   512 -6.278972727E+00 -4.412483856E-01 -2.854299621E+01  2.922880140E+01  1.066240300E-06  0.00000E+00  9.000E+00
</event>
<event>
      5  10001  2.02673E+08  1.23745E+01 -1.00000E+00  1.85583E-01
      21    -1     0     0   511   516  0.000000000E+00  0.000000000E+00  1.195488545E+02  1.195488545E+02  0.000000000E+00  0.00000E+00  9.000E+00
      21    -1     0     0   515   511  0.000000000E+00  0.000000000E+00 -2.640744472E+01  2.640744472E+01  0.000000000E+00  0.00000E+00  9.000E+00
      21     1     1     2   512   516  2.448994681E+01  2.154769827E+01  1.043288161E+02  1.093094812E+02  1.348699152E-06  0.00000E+00  9.000E+00
      21     1     1     2   515   513 -7.085978462E+00 -9.875035374E+00 -9.856734634E+00  1.564872621E+01  5.196212463E-07  0.00000E+00  9.000E+00
      21     1     1     2   513   512 -1.740396835E+01 -1.167266290E+01 -1.330671725E+00  2.099809184E+01  5.166213460E-07  0.00000E+00  9.000E+00
</event>
<event>
      5  10001  2.02673E+08  3.91286E+01 -1.00000E+00  1.45404E-01
      21    -1     0     0   514   512  0.000000000E+00  0.000000000E+00  1.149150272E+02  1.149150272E+02  0.000000000E+00  0.00000E+00  9.000E+00
      21    -1     0     0   517   514  0.000000000E+00  0.000000000E+00 -8.271164295E+01  8.271164295E+01  0.000000000E+00  0.00000E+00  9.000E+00
      21     1     1     2   515   512 -4.421944946E+01  1.787449064E+01  9.633595672E+01  1.074963892E+02  0.000000000E+00  0.00000E+00  9.000E+00
      21     1     1     2   517   511  2.734946472E+01  1.070070336E+01 -3.718148966E+01  4.738102411E+01  6.743495762E-07  0.00000E+00  9.000E+00
      21     1     1     2   511   515  1.686998474E+01 -2.857519400E+01 -2.695108282E+01  4.274925686E+01  1.066240300E-06  0.00000E+00  9.000E+00
</event>
<event>
      5  10001  2.02673E+08  9.30942E+00 -1.00000E+00  1.99359E-01
       2    -1     0     0   514     0  0.000000000E+00  0.000000000E+00  7.989356950E+02  7.989356950E+02  0.000000000E+00  0.00000E+00  9.000E+00
      21    -1     0     0   513   514  0.000000000E+00  0.000000000E+00 -3.277683910E+00  3.277683910E+00  0.000000000E+00  0.00000E+00  9.000E+00
      21     1     1     2   513   512  1.998561070E+01  1.927785615E+01  1.012978319E+02  1.050348091E+02  1.348699152E-06  0.00000E+00  9.000E+00
       2     1     1     2   511     0 -2.607341829E+01 -2.068263009E+01  6.856609078E+02  6.864681957E+02  3.300000131E-01  0.00000E+00  9.000E+00
      21     1     1     2   512   511  6.087807585E+00  1.404773942E+00  8.699271404E+00  1.071037413E+01  3.953724850E-07  0.00000E+00  9.000E+00
</event>
<event>
      5  10001  2.02673E+08  7.22425E+00 -1.00000E+00  2.13566E-01
       1    -1     0     0   515     0  0.000000000E+00  0.000000000E+00  5.839212288E+01  5.839212288E+01  0.000000000E+00  0.00000E+00  9.000E+00
      21    -1     0     0   512   516  0.000000000E+00  0.000000000E+00 -3.496729626E+01  3.496729626E+01  0.000000000E+00  0.00000E+00  9.000E+00
      21     1     1     2   515   516 -3.343780463E+01 -1.376492212E+00 -6.484772403E+00  3.408861661E+01  5.840038640E-07  0.00000E+00  9.000E+00
      21     1     1     2   512   511  2.674252078E+01  4.089516809E+00 -1.446065092E+00  2.709202225E+01  4.380028980E-07  0.00000E+00  9.000E+00
       1     1     1     2   511     0  6.695283850E+00 -2.713024597E+00  3.135566411E+01  3.217878028E+01  3.300000131E-01  0.00000E+00  9.000E+00
</event>
<event>
      5  10001  2.02673E+08  9.88420E+01 -1.00000E+00  1.24033E-01
      -3    -1     0     0     0   513  0.000000000E+00  0.000000000E+00  9.896588189E+01  9.896588189E+01  0.000000000E+00  0.00000E+00  9.000E+00
      21    -1     0     0   513   514  0.000000000E+00  0.000000000E+00 -2.363942989E+02  2.363942989E+02  0.000000000E+00  0.00000E+00  9.000E+00
      -3     1     1     2     0   511  2.166318753E+01  3.381827727E+01  8.509568533E+01  9.409832747E+01  5.000000000E-01  0.00000E+00  9.000E+00
      21     1     1     2   512   514  3.224408522E+01 -1.183892802E+01 -9.679854980E+01  1.027122217E+02  1.348699152E-06  0.00000E+00  9.000E+00
      21     1     1     2   511   512 -5.390727275E+01 -2.197934925E+01 -1.257255525E+02  1.385496315E+02  2.336015456E-06  0.00000E+00  9.000E+00
</event>
<event>
      5  10001  2.02673E+08  1.32882E+01 -1.00000E+00  1.82439E-01
      21    -1     0     0   515   512  0.000000000E+00  0.000000000E+00  2.913791714E+02  2.913791714E+02  0.000000000E+00  0.00000E+00  9.000E+00
       1    -1     0     0   511     0  0.000000000E+00  0.000000000E+00 -2.852855684E+02  2.852855684E+02  0.000000000E+00  0.00000E+00  9.000E+00
      21     1     1     2   511   512 -4.519568840E+01 -6.872518092E+00  2.851331621E+02  2.887746559E+02  3.814697266E-06  0.00000E+00  9.000E+00
       1     1     1     2   513     0  5.000418508E+01  1.609818028E+01 -2.663491981E+02  2.714803384E+02  3.300000131E-01  0.00000E+00  9.000E+00
      21     1     1     2   515   513 -4.808496679E+00 -9.225662189E+00 -1.269036104E+01  1.640974547E+01  4.460403188E-07  0.00000E+00  9.000E+00
</event>
<event>
      5  10001  2.02673E+08  1.86196E+01 -1.00000E+00  1.68930E-01
      21    -1     0     0   514   517  0.000000000E+00  0.000000000E+00  1.341556590E+01  1.341556590E+01  0.000000000E+00  0.00000E+00  9.000E+00
      21    -1     0     0   511   516  0.000000000E+00  0.000000000E+00 -2.046650017E+02  2.046650017E+02  0.000000000E+00  0.00000E+00  9.000E+00
      21     1     1     2   514   516 -2.643381026E+01 -1.567819141E+01 -3.022701471E+01  4.310712736E+01  1.011524364E-06  0.00000E+00  9.000E+00
      21     1     1     2   511   512  4.379150451E+01  8.940297087E+00 -1.396499375E+02  1.466278616E+02  2.697398305E-06  0.00000E+00  9.000E+00
      21     1     1     2   512   517 -1.735769425E+01  6.737894323E+00 -2.137248368E+01  2.834557864E+01  4.129530925E-07  0.00000E+00  9.000E+00
</event>
<event>
      5  10001  2.02673E+08  3.21475E+01 -1.00000E+00  1.50949E-01
      21    -1     0     0   512   511  0.000000000E+00  0.000000000E+00  7.474835187E+00  7.474835187E+00  0.000000000E+00  0.00000E+00  9.000E+00
       1    -1     0     0   513     0  0.000000000E+00  0.000000000E+00 -2.424069378E+02  2.424069378E+02  0.000000000E+00  0.00000E+00  9.000E+00
      -5     1     1     2     0   511  1.505426222E+01  2.664676129E+00 -6.701235566E+01  6.890157562E+01  4.800000191E+00  0.00000E+00  9.000E+00
       1     1     1     2   512     0 -3.551520536E+01 -7.027250894E+00 -1.455207397E+02  1.499570160E+02  3.300000131E-01  0.00000E+00  9.000E+00
       5     1     1     2   513     0  2.046094314E+01  4.362574765E+00 -2.239900718E+01  3.102318129E+01  4.800000191E+00  0.00000E+00  9.000E+00
</event>
<event>
      5  10001  2.02673E+08  5.25438E+01 -1.00000E+00  1.37829E-01
      21    -1     0     0   514   513  0.000000000E+00  0.000000000E+00  5.128174933E+01  5.128174933E+01  0.000000000E+00  0.00000E+00  9.000E+00
      21    -1     0     0   511   515  0.000000000E+00  0.000000000E+00 -1.370035593E+02  1.370035593E+02  0.000000000E+00  0.00000E+00  9.000E+00
      21     1     1     2   514   515 -2.000304272E+01 -7.717981001E+01 -6.758977152E+01  1.045237868E+02  0.000000000E+00  0.00000E+00  9.000E+00
      21     1     1     2   511   512  3.348050534E+00  4.972190376E+00  3.000913982E+00  6.703551613E+00  2.149076030E-07  0.00000E+00  9.000E+00
      21     1     1     2   512   513  1.665499219E+01  7.220761963E+01 -2.113295244E+01  7.705797023E+01  2.064765462E-06  0.00000E+00  9.000E+00
</event>
<event>
      5  10001  2.02673E+08  1.59640E+01 -1.00000E+00  1.74826E-01
      21    -1     0     0   516   511  0.000000000E+00  0.000000000E+00  1.439519600E+01  1.439519600E+01  0.000000000E+00  0.00000E+00  9.000E+00
      21    -1     0     0   517   513  0.000000000E+00  0.000000000E+00 -3.450718615E+02  3.450718615E+02  0.000000000E+00  0.00000E+00  9.000E+00
      21     1     1     2   516   513  5.325095475E+00  4.332639172E+01 -2.978361861E+02  3.010181500E+02  5.394796609E-06  0.00000E+00  9.000E+00
      21     1     1     2   517   514 -7.527728368E-01 -2.040419934E+01 -3.146416885E+00  2.065908897E+01  1.235988221E-06  0.00000E+00  9.000E+00
      21     1     1     2   514   511 -4.572322638E+00 -2.292219238E+01 -2.969406248E+01  3.778981853E+01  8.920806376E-07  0.00000E+00  9.000E+00
</event>
<event>
      5  10001  2.02673E+08  2.03371E+01 -1.00000E+00  1.65731E-01
      21    -1     0     0   512   513  0.000000000E+00  0.000000000E+00  1.073544401E+02  1.073544401E+02  0.000000000E+00  0.00000E+00  9.000E+00
      21    -1     0     0   515   511  0.000000000E+00  0.000000000E+00 -2.980009181E+01  2.980009181E+01  0.000000000E+00  0.00000E+00  9.000E+00
      21     1     1     2   512   511 -2.104117924E+00 -4.291761968E+01 -1.800864037E+00  4.300688901E+01  4.277437953E-07  0.00000E+00  9.000E+00
      21     1     1     2   515   516  1.161664332E+01  3.297176216E+01  4.392365992E+01  5.613707690E+01  9.536743164E-07  0.00000E+00  9.000E+00
      21     1     1     2   516   513 -9.512525396E+00  9.945857515E+00  3.543155236E+01  3.801056595E+01  8.259061849E-07  0.00000E+00  9.000E+00
</event>
<event>
      5  10001  2.02673E+08  4.40353E+00 -1.00000E+00  2.53907E-01
       2    -1     0     0   511     0  0.000000000E+00  0.000000000E+00  4.203238082E+02  4.203238082E+02  0.000000000E+00  0.00000E+00  9.000E+00
      21    -1     0     0   514   516  0.000000000E+00  0.000000000E+00 -6.149158224E+00  6.149158224E+00  0.000000000E+00  0.00000E+00  9.000E+00
      21     1     1     2   511   516  1.712560765E+01 -2.628940774E+01  4.000479093E+01  5.084095488E+01  1.784161275E-06  0.00000E+00  9.000E+00
       2     1     1     2   512     0 -1.212171856E+01  2.521933100E+01  3.196748121E+02  3.208972501E+02  3.300000131E-01  0.00000E+00  9.000E+00
      21     1     1     2   514   512 -5.003889081E+00  1.070076741E+00  5.449504699E+01  5.473476151E+01  1.168007728E-06  0.00000E+00  9.000E+00
</event>
<event>
      5  10001  2.02673E+08  1.70782E+01 -1.00000E+00  1.72190E-01
       2    -1     0     0   514     0  0.000000000E+00  0.000000000E+00  1.007886499E+02  1.007886499E+02  0.000000000E+00  0.00000E+00  9.000E+00
      21    -1     0     0   513   512  0.000000000E+00  0.000000000E+00 -2.919286307E+01  2.919286307E+01  0.000000000E+00  0.00000E+00  9.000E+00
      21     1     1     2   514   512  3.111253381E+01 -4.071367980E+01  2.418676460E+01  5.666209549E+01  4.768371582E-07  0.00000E+00  9.000E+00
       2     1     1     2   511     0 -1.789287680E+01  3.071439672E+01  1.869325329E+01  4.016311523E+01  3.300000131E-01  0.00000E+00  9.000E+00
      21     1     1     2   513   511 -1.321965701E+01  9.999283084E+00  2.871576895E+01  3.315630226E+01  0.000000000E+00  0.00000E+00  9.000E+00
</event>
<event>
      5  10001  2.02673E+08  2.05295E+01 -1.00000E+00  1.65397E-01
      21    -1     0     0   513   511  0.000000000E+00  0.000000000E+00  1.786381317E+00  1.786381317E+00  0.000000000E+00  0.00000E+00  9.000E+00
       2    -1     0     0   515     0  0.000000000E+00  0.000000000E+00 -9.315582312E+02  9.315582312E+02  0.000000000E+00  0.00000E+00  9.000E+00
      -3     1     1     2     0   511 -1.775212387E+01 -3.133795646E+00 -5.326940773E+01  5.623911785E+01  5.000000000E-01  0.00000E+00  9.000E+00
       2     1     1     2   513     0  2.443919028E+01  5.520952526E+00 -6.243621552E+02  6.248647572E+02  3.300000131E-01  0.00000E+00  9.000E+00
       3     1     1     2   515     0 -6.687066414E+00 -2.387156880E+00 -2.521402869E+02  2.522407375E+02  5.000000000E-01  0.00000E+00  9.000E+00
</event>
<event>
      5  10001  2.02673E+08  1.45118E+01 -1.00000E+00  1.78700E-01
      21    -1     0     0   512   516  0.000000000E+00  0.000000000E+00  3.278078181E+01  3.278078181E+01  0.000000000E+00  0.00000E+00  9.000E+00
      21    -1     0     0   514   512  0.000000000E+00  0.000000000E+00 -8.781535771E+01  8.781535771E+01  0.000000000E+00  0.00000E+00  9.000E+00
      21     1     1     2   515   516  5.170573119E+01 -7.405621349E+00 -1.719383178E+01  5.499048751E+01  1.092571186E-06  0.00000E+00  9.000E+00
      21     1     1     2   511   515 -1.965927193E+01  8.517163808E+00 -1.715375411E+01  2.744595293E+01  2.384185791E-07  0.00000E+00  9.000E+00
      21     1     1     2   514   511 -3.204645926E+01 -1.111542458E+00 -2.068699002E+01  3.815969908E+01  2.384185791E-07  0.00000E+00  9.000E+00
</event>
<event>
      5  10001  2.02673E+08  7.55245E+00 -1.00000E+00  2.10926E-01
      21    -1     0     0   513   511  0.000000000E+00  0.000000000E+00  1.510192651E+02  1.510192651E+02  0.000000000E+00  0.00000E+00  9.000E+00
      21    -1     0     0   514   513  0.000000000E+00  0.000000000E+00 -2.838312059E+02  2.838312059E+02  0.000000000E+00  0.00000E+00  9.000E+00
      21     1     1     2   514   517 -3.105715548E+01  1.105394330E+01 -2.804586125E+02  2.823893941E+02  3.814697266E-06  0.00000E+00  9.000E+00
      21     1     1     2   517   512  3.301492682E+01 -7.624876882E+00  1.271423188E+02  1.315799885E+02  2.697398305E-06  0.00000E+00  9.000E+00
      21     1     1     2   512   511 -1.957771345E+00 -3.429066418E+00  2.050435288E+01  2.088108839E+01  2.384185791E-07  0.00000E+00  9.000E+00
</event>
<event>
      5  10001  2.02673E+08  8.79512E+00 -1.00000E+00  2.02369E-01
      21    -1     0     0   515   516  0.000000000E+00  0.000000000E+00  2.837051971E+02  2.837051971E+02  0.000000000E+00  0.00000E+00  9.000E+00
      21    -1     0     0   514   511  0.000000000E+00  0.000000000E+00 -9.435078587E+00  9.435078587E+00  0.000000000E+00  0.00000E+00  9.000E+00
      21     1     1     2   515   511  2.196500712E+00 -3.112936478E+01  2.095033451E+01  3.758694565E+01  7.907449699E-07  0.00000E+00  9.000E+00
       1     1     1     2   514     0  4.302025556E+00  2.247470663E+01  1.713927181E+02  1.729138299E+02  3.300000131E-01  0.00000E+00  9.000E+00
      -1     1     1     2     0   516 -6.498526268E+00  8.654658148E+00  8.192706590E+01  8.263950011E+01  3.300000131E-01  0.00000E+00  9.000E+00
</event>
<event>
      5  10001  2.02673E+08  7.17353E+01 -1.00000E+00  1.30659E-01
      21    -1     0     0   512   511  0.000000000E+00  0.000000000E+00  1.457825582E+01  1.457825582E+01  0.000000000E+00  0.00000E+00  9.000E+00
      21    -1     0     0   516   513  0.000000000E+00  0.000000000E+00 -1.709663543E+02  1.709663543E+02  0.000000000E+00  0.00000E+00  9.000E+00
      21     1     1     2   512   513  3.187140970E+01  6.568805118E+00 -3.631755661E+01  4.876372499E+01  6.743495762E-07  0.00000E+00  9.000E+00
      21     1     1     2   516   514  6.065490613E+00 -8.693470547E+00 -8.307609521E+01  8.374965195E+01  9.536743164E-07  0.00000E+00  9.000E+00
      21     1     1     2   514   511 -3.793690031E+01  2.124665429E+00 -3.699444664E+01  5.303123316E+01  8.259061849E-07  0.00000E+00  9.000E+00
</event>
<event>
      5  10001  2.02673E+08  2.59477E+01 -1.00000E+00  1.57513E-01
      21    -1     0     0   515   514  0.000000000E+00  0.000000000E+00  3.530013881E+01  3.530013881E+01  0.000000000E+00  0.00000E+00  9.000E+00
      21    -1     0     0   511   515  0.000000000E+00  0.000000000E+00 -2.681391515E+01  2.681391515E+01  0.000000000E+00  0.00000E+00  9.000E+00
      21     1     1     2   516   514  2.651187451E+01 -4.496132445E+00  8.585478722E+00  2.822773710E+01  3.153981341E-07  0.00000E+00  9.000E+00
      21     1     1     2   512   516 -6.906778146E+00  8.391400878E-01 -9.551156747E+00  1.181661270E+01  1.192092896E-07  0.00000E+00  9.000E+00
      21     1     1     2   511   512 -1.960509636E+01  3.656992357E+00  9.451901678E+00  2.206970416E+01  2.665600750E-07  0.00000E+00  9.000E+00
</event>
<event>
      5  10001  2.02673E+08  3.12293E+01 -1.00000E+00  1.51804E-01
      21    -1     0     0   513   512  0.000000000E+00  0.000000000E+00  3.241427650E+01  3.241427650E+01  0.000000000E+00  0.00000E+00  9.000E+00
      21    -1     0     0   511   513  0.000000000E+00  0.000000000E+00 -7.038419352E+01  7.038419352E+01  0.000000000E+00  0.00000E+00  9.000E+00
      21     1     1     2   511   517  1.174369314E+01  2.900922906E+01 -4.672777483E+01  5.623997368E+01  6.743495762E-07  0.00000E+00  9.000E+00
      21     1     1     2   517   514 -7.311127695E+00 -4.372655244E+00  1.796843346E+01  1.988560543E+01  5.840038640E-07  0.00000E+00  9.000E+00
      21     1     1     2   514   512 -4.432565445E+00 -2.463657382E+01 -9.210575658E+00  2.667289092E+01  6.743495762E-07  0.00000E+00  9.000E+00
</event>
<event>
      5  10001  2.02673E+08  8.49119E+00 -1.00000E+00  2.04280E-01
       1    -1     0     0   513     0  0.000000000E+00  0.000000000E+00  8.515404774E+01  8.515404774E+01  0.000000000E+00  0.00000E+00  9.000E+00
      21    -1     0     0   515   511  0.000000000E+00  0.000000000E+00 -1.000063055E+02  1.000063055E+02  0.000000000E+00  0.00000E+00  9.000E+00
      21     1     1     2   515   514  1.536438908E+01 -2.661985314E+01 -8.609366801E+01  9.141553864E+01  1.651812370E-06  0.00000E+00  9.000E+00
       1     1     1     2   514     0 -9.339560949E+00  3.260327464E+01  7.655260519E+01  8.372939255E+01  3.300000131E-01  0.00000E+00  9.000E+00
      21     1     1     2   513   511 -6.024828134E+00 -5.983421501E+00 -5.311194923E+00  1.001542203E+01  0.000000000E+00  0.00000E+00  9.000E+00
</event>
<event>
      5  10001  2.02673E+08  1.31422E+01 -1.00000E+00  1.82919E-01
      21    -1     0     0   512   511  0.000000000E+00  0.000000000E+00  1.562520260E+01  1.562520260E+01  0.000000000E+00  0.00000E+00  9.000E+00
      21    -1     0     0   515   516  0.000000000E+00  0.000000000E+00 -2.151253328E+02  2.151253328E+02  0.000000000E+00  0.00000E+00  9.000E+00
      21     1     1     2   512   516 -3.831535915E+01 -1.153178867E+01 -1.798568528E+01  4.386950845E+01  7.539457465E-07  0.00000E+00  9.000E+00
      21     1     1     2   515   514  3.356952264E+01  7.697021035E+00 -1.139334882E+02  1.190251936E+02  0.000000000E+00  0.00000E+00  9.000E+00
      21     1     1     2   514   511  4.745836507E+00  3.834767636E+00 -6.758095667E+01  6.785583329E+01  1.651812370E-06  0.00000E+00  9.000E+00
</event>
<event>
      5  10001  2.02673E+08  1.46087E+01 -1.00000E+00  1.78424E-01
      21    -1     0     0   512   514  0.000000000E+00  0.000000000E+00  2.748730158E+02  2.748730158E+02  0.000000000E+00  0.00000E+00  9.000E+00
      21    -1     0     0   511   513  0.000000000E+00  0.000000000E+00 -3.373911956E+01  3.373911956E+01  0.000000000E+00  0.00000E+00  9.000E+00
      21     1     1     2   515   514 -3.208288842E+01  2.691338405E+01  9.313061983E+01  1.021124592E+02  1.348699152E-06  0.00000E+00  9.000E+00
      21     1     1     2   511   515  1.753419035E+01 -2.559109636E+01 -2.061685268E+01  3.724790811E+01  1.143415337E-06  0.00000E+00  9.000E+00
      21     1     1     2   512   513  1.454869807E+01 -1.322287690E+00  1.686201291E+02  1.692517681E+02  0.000000000E+00  0.00000E+00  9.000E+00
</event>
<event>
      5  10001  2.02673E+08  2.69722E+01 -1.00000E+00  1.56283E-01
      21    -1     0     0   516   513  0.000000000E+00  0.000000000E+00  1.262709659E+02  1.262709659E+02  0.000000000E+00  0.00000E+00  9.000E+00
      21    -1     0     0   517   516  0.000000000E+00  0.000000000E+00 -1.477317227E+01  1.477317227E+01  0.000000000E+00  0.00000E+00  9.000E+00
      21     1     1     2   511   513  5.508061460E+00 -3.096633888E+01  1.020069965E+02  1.067458674E+02  1.348699152E-06  0.00000E+00  9.000E+00
      21     1     1     2   517   514  2.369712105E+00  3.872989569E+00  2.680410463E+00  5.272587971E+00  0.000000000E+00  0.00000E+00  9.000E+00
      21     1     1     2   514   511 -7.877773564E+00  2.709334931E+01  6.810386688E+00  2.902568277E+01  6.474721725E-07  0.00000E+00  9.000E+00
</event>
<event>
      5  10001  2.02673E+08  4.46920E+01 -1.00000E+00  1.41885E-01
      -4    -1     0     0     0   511  0.000000000E+00  0.000000000E+00  1.873100523E+01  1.873100523E+01  0.000000000E+00  0.00000E+00  9.000E+00
       1    -1     0     0   511     0  0.000000000E+00  0.000000000E+00 -2.078629007E+02  2.078629007E+02  0.000000000E+00  0.00000E+00  9.000E+00
      -4     1     1     2     0   512  1.779913226E+01  2.149592761E+01  2.658479568E+00  2.807492701E+01  1.500000000E+00  0.00000E+00  9.000E+00
      21     1     1     2   512   513 -2.864205171E+01 -7.723217552E+00 -7.923031574E+01  8.460176208E+01  1.348699152E-06  0.00000E+00  9.000E+00
       1     1     1     2   513     0  1.084291945E+01 -1.377271006E+01 -1.125600593E+02  1.139172169E+02  3.300000131E-01  0.00000E+00  9.000E+00
</event>
<event>
      5  10001  2.02673E+08  1.05636E+02 -1.00000E+00  1.22744E-01
      -1    -1     0     0     0   514  0.000000000E+00  0.000000000E+00  1.070669353E+02  1.070669353E+02  0.000000000E+00  0.00000E+00  9.000E+00
      21    -1     0     0   514   515  0.000000000E+00  0.000000000E+00 -2.879360201E+01  2.879360201E+01  0.000000000E+00  0.00000E+00  9.000E+00
      21     1     1     2   512   511 -2.493491184E+00 -3.515819319E+00 -1.784433602E+01  1.835752739E+01  5.840038640E-07  0.00000E+00  9.000E+00
      21     1     1     2   511   515  5.453857231E+00 -1.612117563E+01 -2.235064926E+00  1.716485880E+01  6.230039883E-07  0.00000E+00  9.000E+00
      -1     1     1     2     0   512 -2.960366047E+00  1.963699495E+01  9.835273427E+01  1.003381511E+02  3.300000131E-01  0.00000E+00  9.000E+00
</event>
<event>
      5  10001  2.02673E+08  1.25474E+01 -1.00000E+00  1.84962E-01
      -2    -1     0     0     0   512  0.000000000E+00  0.000000000E+00  8.109377550E+01  8.109377550E+01  0.000000000E+00  0.00000E+00  9.000E+00
      -3    -1     0     0     0   511  0.000000000E+00  0.000000000E+00 -3.695384807E+01  3.695384807E+01  0.000000000E+00  0.00000E+00  9.000E+00
      -3     1     1     2     0   512 -2.885121160E+01  3.658637051E+01 -4.791251003E+00  4.684187234E+01  5.000000000E-01  0.00000E+00  9.000E+00
      -2     1     1     2     0   513  2.380429590E+01 -2.436105996E+01  4.668516865E+01  5.779030729E+01  3.300000131E-01  0.00000E+00  9.000E+00
      21     1     1     2   513   511  5.046915699E+00 -1.222531055E+01  2.246009783E+00  1.341544394E+01  3.874301910E-07  0.00000E+00  9.000E+00
</event>
<event>
      5  10001  2.02673E+08  2.27568E+01 -1.00000E+00  1.61832E-01
      21    -1     0     0   516   511  0.000000000E+00  0.000000000E+00  1.632044467E+02  1.632044467E+02  0.000000000E+00  0.00000E+00  9.000E+00
      21    -1     0     0   512   515  0.000000000E+00  0.000000000E+00 -4.465732615E+02  4.465732615E+02  0.000000000E+00  0.00000E+00  9.000E+00
      21     1     1     2   514   515  2.415687271E+01 -9.515839593E+00  1.019695630E+02  1.052230844E+02  3.814697266E-06  0.00000E+00  9.000E+00
      21     1     1     2   512   511 -4.332525375E+01 -2.749728499E+00 -4.416708350E+02  4.437992396E+02  5.394796609E-06  0.00000E+00  9.000E+00
      21     1     1     2   516   514  1.916838104E+01  1.226556809E+01  5.633245705E+01  6.075538420E+01  0.000000000E+00  0.00000E+00  9.000E+00
</event>
<event>
      5  10001  2.02673E+08  2.28917E+01 -1.00000E+00  1.61632E-01
       2    -1     0     0   514     0  0.000000000E+00  0.000000000E+00  3.414829710E+02  3.414829710E+02  0.000000000E+00  0.00000E+00  9.000E+00
      21    -1     0     0   511   514  0.000000000E+00  0.000000000E+00 -5.137891640E+01  5.137891640E+01  0.000000000E+00  0.00000E+00  9.000E+00
      21     1     1     2   516   513 -3.256599007E+01  2.251362030E+01  1.240511920E+02  1.302156098E+02  1.907348633E-06  0.00000E+00  9.000E+00
       2     1     1     2   513     0  5.079881075E+01 -8.671999648E+00  2.083083665E+02  2.145884600E+02  3.300000131E-01  0.00000E+00  9.000E+00
      21     1     1     2   511   516 -1.823282068E+01 -1.384162066E+01 -4.225550389E+01  4.805781748E+01  1.261592536E-06  0.00000E+00  9.000E+00
</event>
<event>
      5  10001  2.02673E+08  9.23006E+00 -1.00000E+00  1.99806E-01
       2    -1     0     0   511     0  0.000000000E+00  0.000000000E+00  2.117378822E+02  2.117378822E+02  0.000000000E+00  0.00000E+00  9.000E+00
       1    -1     0     0   512     0  0.000000000E+00  0.000000000E+00 -1.375852817E+01  1.375852817E+01  0.000000000E+00  0.00000E+00  9.000E+00
      21     1     1     2   511   513 -1.021197545E+01 -2.828692349E+01  1.677103609E+01  3.443402583E+01  5.331201500E-07  0.00000E+00  9.000E+00
       2     1     1     2   512     0  8.418618616E+00  3.140645525E+01  1.837753924E+02  1.866299609E+02  3.300000131E-01  0.00000E+00  9.000E+00
       1     1     1     2   513     0  1.793356839E+00 -3.119531761E+00 -2.567074498E+00  4.432423563E+00  3.300000131E-01  0.00000E+00  9.000E+00
</event>
<event>
      5  10001  2.02673E+08  6.25778E+00 -1.00000E+00  2.22595E-01
      21    -1     0     0   514   515  0.000000000E+00  0.000000000E+00  1.158927942E+02  1.158927942E+02  0.000000000E+00  0.00000E+00  9.000E+00
      21    -1     0     0   515   511  0.000000000E+00  0.000000000E+00 -2.830583075E+01  2.830583075E+01  0.000000000E+00  0.00000E+00  9.000E+00
      -3     1     1     2     0   511  3.921041668E+01 -3.463918088E+01  1.779300860E+01  5.526455268E+01  5.000000000E-01  0.00000E+00  9.000E+00
       3     1     1     2   512     0 -3.247297845E+01  3.499136645E+01  6.504115950E+01  8.068142590E+01  5.000000000E-01  0.00000E+00  9.000E+00
      21     1     1     2   514   512 -6.737438224E+00 -3.521855741E-01  4.752795342E+00  8.252646367E+00  1.332800375E-07  0.00000E+00  9.000E+00
</event>
<event>
      5  10001  2.02673E+08  1.95674E+01 -1.00000E+00  1.67114E-01
      21    -1     0     0   513   511  0.000000000E+00  0.000000000E+00  1.885564863E+02  1.885564863E+02  0.000000000E+00  0.00000E+00  9.000E+00
       3    -1     0     0   515     0  0.000000000E+00  0.000000000E+00 -1.149556607E+02  1.149556607E+02  0.000000000E+00  0.00000E+00  9.000E+00
      21     1     1     2   513   516  2.376502142E+00 -4.836563074E+01  1.481305635E+02  1.558446209E+02  2.697398305E-06  0.00000E+00  9.000E+00
      21     1     1     2   515   511  1.303677729E+01  3.631104482E+01  2.516972980E+01  4.606478955E+01  1.545128989E-06  0.00000E+00  9.000E+00
       3     1     1     2   516     0 -1.541327943E+01  1.205458592E+01 -9.969946773E+01  1.016027366E+02  5.000000000E-01  0.00000E+00  9.000E+00
</event>
<event>
      5  10001  2.02673E+08  8.16137E+00 -1.00000E+00  2.06478E-01
      21    -1     0     0   514   511  0.000000000E+00  0.000000000E+00  1.776457892E+01  1.776457892E+01  0.000000000E+00  0.00000E+00  9.000E+00
       2    -1     0     0   512     0  0.000000000E+00  0.000000000E+00 -5.052590706E+02  5.052590706E+02  0.000000000E+00  0.00000E+00  9.000E+00
      -2     1     1     2     0   511  2.773494917E+01 -1.505515433E+01  1.347648515E+00  3.158813280E+01  3.300000131E-01  0.00000E+00  9.000E+00
       2     1     1     2   512     0 -2.247491618E+01  2.129490239E+01 -4.683969858E+02  4.694192582E+02  3.300000131E-01  0.00000E+00  9.000E+00
       2     1     1     2   514     0 -5.260032988E+00 -6.239748065E+00 -2.044515444E+01  2.201625861E+01  3.300000131E-01  0.00000E+00  9.000E+00
</event>
<event>
      5  10001  2.02673E+08  2.97799E+01 -1.00000E+00  1.53227E-01
      21    -1     0     0   513   511  0.000000000E+00  0.000000000E+00  9.055234734E+02  9.055234734E+02  0.000000000E+00  0.00000E+00  9.000E+00
      21    -1     0     0   512   513  0.000000000E+00  0.000000000E+00 -4.365458101E+01  4.365458101E+01  0.000000000E+00  0.00000E+00  9.000E+00
      21     1     1     2   515   516 -4.377664510E+01 -4.615820416E+00  1.017520533E+00  4.403107769E+01  1.547139567E-06  0.00000E+00  9.000E+00
      21     1     1     2   516   511  6.165991635E+01  2.842819742E+01  8.710324929E+02  8.736748317E+02  1.078959322E-05  0.00000E+00  9.000E+00
      21     1     1     2   512   515 -1.788327125E+01 -2.381237701E+01 -1.018112107E+01  3.147214507E+01  1.066240300E-06  0.00000E+00  9.000E+00
</event>
<event>
      5  10001  2.02673E+08  1.29820E+01 -1.00000E+00  1.83455E-01
      21    -1     0     0   513   511  0.000000000E+00  0.000000000E+00  7.583407615E+01  7.583407615E+01  0.000000000E+00  0.00000E+00  9.000E+00
       1    -1     0     0   514     0  0.000000000E+00  0.000000000E+00 -2.959927732E+02  2.959927732E+02  0.000000000E+00  0.00000E+00  9.000E+00
      21     1     1     2   514   511 -7.327403281E+01  8.704376550E+01 -3.701461990E+01  1.196485816E+02  2.780414531E-06  0.00000E+00  9.000E+00
       1     1     1     2   512     0  8.582493293E+01 -8.372599909E+01 -1.986040256E+02  2.319905816E+02  3.300000131E-01  0.00000E+00  9.000E+00
      21     1     1     2   513   512 -1.255090012E+01 -3.317766412E+00  1.545994845E+01  2.018768620E+01  4.460403188E-07  0.00000E+00  9.000E+00
</event>
<event>
      5  10001  2.02673E+08  3.15560E+01 -1.00000E+00  1.51496E-01
      21    -1     0     0   515   512  0.000000000E+00  0.000000000E+00  1.231366493E+02  1.231366493E+02  0.000000000E+00  0.00000E+00  9.000E+00
      21    -1     0     0   511   516  0.000000000E+00  0.000000000E+00 -1.602916498E+02  1.602916498E+02  0.000000000E+00  0.00000E+00  9.000E+00
      21     1     1     2   515   516 -6.802080330E+01  4.495706727E+01 -1.275174905E+02  1.513561296E+02  1.907348633E-06  0.00000E+00  9.000E+00
      21     1     1     2   511   514  3.443344755E+01 -2.792729496E+01  8.241710432E+01  9.358512274E+01  0.000000000E+00  0.00000E+00  9.000E+00
      21     1     1     2   514   512  3.358735576E+01 -1.702977231E+01  7.945385703E+00  3.848704673E+01  8.301966356E-07  0.00000E+00  9.000E+00
</event>
<event>
      5  10001  2.02673E+08  4.02537E+01 -1.00000E+00  1.44639E-01
       2    -1     0     0   511     0  0.000000000E+00  0.000000000E+00  4.701128088E+02  4.701128088E+02  0.000000000E+00  0.00000E+00  9.000E+00
      21    -1     0     0   513   514  0.000000000E+00  0.000000000E+00 -6.836539654E+01  6.836539654E+01  0.000000000E+00  0.00000E+00  9.000E+00
      21     1     1     2   511   515 -6.186450191E+00  4.538174848E+01 -5.385169736E+01  7.069498263E+01  2.236564522E-06  0.00000E+00  9.000E+00
       2     1     1     2   513     0  1.895834419E+01 -2.196064798E+01  4.294452724E+02  4.304242556E+02  3.300000131E-01  0.00000E+00  9.000E+00
      21     1     1     2   515   514 -1.277189400E+01 -2.342110050E+01  2.615383717E+01  3.735896711E+01  0.000000000E+00  0.00000E+00  9.000E+00
</event>
<event>
      5  10001  2.02673E+08  1.16330E+01 -1.00000E+00  1.88404E-01
      21    -1     0     0   512   513  0.000000000E+00  0.000000000E+00  5.674572302E+01  5.674572302E+01  0.000000000E+00  0.00000E+00  9.000E+00
      21    -1     0     0   511   516  0.000000000E+00  0.000000000E+00 -8.113737119E+01  8.113737119E+01  0.000000000E+00  0.00000E+00  9.000E+00
      21     1     1     2   512   516  3.622374064E+01  9.825108611E-01 -4.002555809E+01  5.399231440E+01  4.768371582E-07  0.00000E+00  9.000E+00
      21     1     1     2   515   513 -3.912302969E+01 -1.224843437E+01  3.975816063E+01  5.710820373E+01  4.768371582E-07  0.00000E+00  9.000E+00
      21     1     1     2   511   515  2.899289053E+00  1.126592351E+01 -2.412425071E+01  2.678257609E+01  3.371747881E-07  0.00000E+00  9.000E+00
</event>
<event>
      5  10001  2.02673E+08  1.11040E+01 -1.00000E+00  1.90588E-01
      -3    -1     0     0     0   514  0.000000000E+00  0.000000000E+00  1.214126885E+01  1.214126885E+01  0.000000000E+00  0.00000E+00  9.000E+00
      21    -1     0     0   513   512  0.000000000E+00  0.000000000E+00 -4.714524302E+02  4.714524302E+02  0.000000000E+00  0.00000E+00  9.000E+00
      -3     1     1     2     0   511  3.209475191E+01 -1.426882038E+01 -1.703803728E+01  3.904122244E+01  5.000000000E-01  0.00000E+00  9.000E+00
      21     1     1     2   511   512 -2.139694380E+01  1.724405836E+01 -3.965240878E+02  3.974752055E+02  7.629394531E-06  0.00000E+00  9.000E+00
      21     1     1     2   513   514 -1.069780811E+01 -2.975237982E+00 -4.574903625E+01  4.707727113E+01  6.743495762E-07  0.00000E+00  9.000E+00
</event>
<event>
      5  10001  2.02673E+08  2.58981E+01 -1.00000E+00  1.57574E-01
      21    -1     0     0   511   512  0.000000000E+00  0.000000000E+00  4.847498024E+01  4.847498024E+01  0.000000000E+00  0.00000E+00  9.000E+00
      21    -1     0     0   513   515  0.000000000E+00  0.000000000E+00 -6.434220023E+02  6.434220023E+02  0.000000000E+00  0.00000E+00  9.000E+00
      21     1     1     2   514   512  4.620690473E+01 -2.183603358E+01 -1.181189828E+02  1.287011441E+02  0.000000000E+00  0.00000E+00  9.000E+00
      21     1     1     2   513   514 -4.277715113E+01 -3.833960016E+00 -5.151533985E+02  5.169406232E+02  7.629394531E-06  0.00000E+00  9.000E+00
      21     1     1     2   511   515 -3.429753599E+00  2.566999359E+01  3.832535920E+01  4.625521526E+01  2.132480600E-06  0.00000E+00  9.000E+00
</event>
<event>
      5  10001  2.02673E+08  1.51162E+01 -1.00000E+00  1.77021E-01
       2    -1     0     0   513     0  0.000000000E+00  0.000000000E+00  2.145388312E+02  2.145388312E+02  0.000000000E+00  0.00000E+00  9.000E+00
      21    -1     0     0   511   515  0.000000000E+00  0.000000000E+00 -2.848296234E+01  2.848296234E+01  0.000000000E+00  0.00000E+00  9.000E+00
      21     1     1     2   513   515 -2.548695247E+01  3.719156797E+01 -4.265199181E+00  4.528785045E+01  3.264680848E-07  0.00000E+00  9.000E+00
       2     1     1     2   512     0  1.404280551E+01 -3.952606565E+01  1.501116397E+02  1.558625148E+02  3.300000131E-01  0.00000E+00  9.000E+00
      21     1     1     2   511   512  1.144414696E+01  2.334497682E+00  4.020942839E+01  4.187142833E+01  4.768371582E-07  0.00000E+00  9.000E+00
</event>
<event>
      5  10001  2.02673E+08  1.91425E+01 -1.00000E+00  1.67912E-01
      21    -1     0     0   514   512  0.000000000E+00  0.000000000E+00  5.867188827E+01  5.867188827E+01  0.000000000E+00  0.00000E+00  9.000E+00
      21    -1     0     0   511   516  0.000000000E+00  0.000000000E+00 -8.923174427E+01  8.923174427E+01  0.000000000E+00  0.00000E+00  9.000E+00
      21     1     1     2   514   516  3.617187872E+01  3.362307042E+00 -7.380662759E+01  8.226255646E+01  1.348699152E-06  0.00000E+00  9.000E+00
      21     1     1     2   513   512 -2.324024243E+01  8.753697303E+00  4.078390222E+01  4.775000277E+01  1.651812370E-06  0.00000E+00  9.000E+00
      21     1     1     2   511   513 -1.293163629E+01 -1.211600435E+01  2.462869373E+00  1.789107331E+01  8.429369702E-08  0.00000E+00  9.000E+00
</event>
<event>
      5  10001  2.02673E+08  1.31831E+01 -1.00000E+00  1.82784E-01
      21    -1     0     0   513   511  0.000000000E+00  0.000000000E+00  3.425439716E+01  3.425439716E+01  0.000000000E+00  0.00000E+00  9.000E+00
      21    -1     0     0   515   513  0.000000000E+00  0.000000000E+00 -1.614166993E+02  1.614166993E+02  0.000000000E+00  0.00000E+00  9.000E+00
      -4     1     1     2     0   512 -1.805778063E+01 -1.723406826E+01  1.612633815E+01  2.975576133E+01  1.500000000E+00  0.00000E+00  9.000E+00
       4     1     1     2   515     0  1.338989139E+01  2.887027472E+01 -1.488342932E+02  1.522060406E+02  1.500000000E+00  0.00000E+00  9.000E+00
      21     1     1     2   512   511  4.667889246E+00 -1.163620646E+01  5.545652915E+00  1.370929455E+01  2.920019320E-07  0.00000E+00  9.000E+00
</event>
<event>
      5  10001  2.02673E+08  1.77226E+01 -1.00000E+00  1.70777E-01
      21    -1     0     0   514   515  0.000000000E+00  0.000000000E+00  2.206537937E+01  2.206537937E+01  0.000000000E+00  0.00000E+00  9.000E+00
      21    -1     0     0   513   511  0.000000000E+00  0.000000000E+00 -4.313281394E+02  4.313281394E+02  0.000000000E+00  0.00000E+00  9.000E+00
      21     1     1     2   514   511 -2.432872270E+01 -3.596582663E+01 -3.039107248E+02  3.069969969E+02  3.814697266E-06  0.00000E+00  9.000E+00
      21     1     1     2   512   515  4.197179713E+01  3.764249081E+01 -2.093683791E+01  6.014100141E+01  1.526623782E-06  0.00000E+00  9.000E+00
      21     1     1     2   513   512 -1.764307443E+01 -1.676664176E+00 -8.441519733E+01  8.625552051E+01  1.348699152E-06  0.00000E+00  9.000E+00
</event>
<event>
      5  10001  2.02673E+08  1.53883E+01 -1.00000E+00  1.76297E-01
      21    -1     0     0   516   515  0.000000000E+00  0.000000000E+00  5.367162344E+01  5.367162344E+01  0.000000000E+00  0.00000E+00  9.000E+00
      21    -1     0     0   513   516  0.000000000E+00  0.000000000E+00 -4.831086742E+01  4.831086742E+01  0.000000000E+00  0.00000E+00  9.000E+00
      21     1     1     2   512   515 -1.883303130E+01 -3.965980753E+01 -1.848879940E+00  4.394316509E+01  5.044433737E-07  0.00000E+00  9.000E+00
      21     1     1     2   513   511  2.391058184E+01  4.185088573E+01  1.311169784E+01  4.995126806E+01  9.973764736E-07  0.00000E+00  9.000E+00
      21     1     1     2   511   512 -5.077550541E+00 -2.191078208E+00 -5.902061881E+00  8.088057719E+00  2.064765462E-07  0.00000E+00  9.000E+00
</event>
<event>
      5  10001  2.02673E+08  1.66566E+01 -1.00000E+00  1.73157E-01
      21    -1     0     0   511   515  0.000000000E+00  0.000000000E+00  8.973091760E+01  8.973091760E+01  0.000000000E+00  0.00000E+00  9.000E+00
       5    -1     0     0   514     0  0.000000000E+00  0.000000000E+00 -2.191920468E+01  2.191920468E+01  0.000000000E+00  0.00000E+00  9.000E+00
      21     1     1     2   514   513  7.150207388E+00 -3.240310647E+01  1.079127161E+01  3.489324171E+01  7.052516679E-07  0.00000E+00  9.000E+00
       5     1     1     2   511     0  9.339611728E+00  3.058856432E+01  2.567907816E+01  4.129580694E+01  4.800000191E+00  0.00000E+00  9.000E+00
      21     1     1     2   513   515 -1.648981912E+01  1.814542151E+00  3.134136316E+01  3.546107362E+01  6.743495762E-07  0.00000E+00  9.000E+00
</event>
<event>
      5  10001  2.02673E+08  1.35334E+01 -1.00000E+00  1.81649E-01
       2    -1     0     0   513     0  0.000000000E+00  0.000000000E+00  1.134817187E+02  1.134817187E+02  0.000000000E+00  0.00000E+00  9.000E+00
      21    -1     0     0   514   513  0.000000000E+00  0.000000000E+00 -4.123992184E+02  4.123992184E+02  0.000000000E+00  0.00000E+00  9.000E+00
      21     1     1     2   511   512  3.837259587E+00 -3.771184680E+01 -1.453027004E+02  1.501658506E+02  1.907348633E-06  0.00000E+00  9.000E+00
       2     1     1     2   512     0 -4.327677284E+00  2.418735053E+01  1.095146691E+02  1.122378206E+02  3.300000131E-01  0.00000E+00  9.000E+00
      21     1     1     2   514   511  4.904176969E-01  1.352449627E+01 -2.631294683E+02  2.634772658E+02  3.814697266E-06  0.00000E+00  9.000E+00
</event>
<event>
      5  10001  2.02673E+08  6.58623E+01 -1.00000E+00  1.32549E-01
      21    -1     0     0   514   515  0.000000000E+00  0.000000000E+00  1.765310822E+00  1.765310822E+00  0.000000000E+00  0.00000E+00  9.000E+00
       2    -1     0     0   512     0  0.000000000E+00  0.000000000E+00 -8.358136955E+02  8.358136955E+02  0.000000000E+00  0.00000E+00  9.000E+00
      21     1     1     2   512   515 -9.367326992E+00  2.836911640E+00 -1.622170372E+02  1.625120366E+02  2.697398305E-06  0.00000E+00  9.000E+00
      21     1     1     2   514   513 -1.103815127E+01 -3.819475689E+00 -2.194780319E+01  2.486232577E+01  5.331201500E-07  0.00000E+00  9.000E+00
       2     1     1     2   513     0  2.040547826E+01  9.825640483E-01 -6.498835443E+02  6.502046440E+02  3.300000131E-01  0.00000E+00  9.000E+00
</event>
<event>
      5  10001  2.02673E+08  5.93050E+00 -1.00000E+00  2.26181E-01
      21    -1     0     0   511   515  0.000000000E+00  0.000000000E+00  6.597462202E+01  6.597462202E+01  0.000000000E+00  0.00000E+00  9.000E+00
      21    -1     0     0   512   516  0.000000000E+00  0.000000000E+00 -5.525373231E+01  5.525373231E+01  0.000000000E+00  0.00000E+00  9.000E+00
      21     1     1     2   511   516  1.424549761E+01  3.643312662E+01 -4.026813957E+01  5.614116121E+01  0.000000000E+00  0.00000E+00  9.000E+00
      21     1     1     2   512   514 -6.654217858E+00 -2.918737206E+01  3.869646092E+01  4.892440485E+01  4.768371582E-07  0.00000E+00  9.000E+00
      21     1     1     2   514   515 -7.591279755E+00 -7.245754561E+00  1.229256836E+01  1.616278826E+01  2.920019320E-07  0.00000E+00  9.000E+00
</event>
<event>
      5  10001  2.02673E+08  7.80280E+00 -1.00000E+00  2.09031E-01
      21    -1     0     0   513   512  0.000000000E+00  0.000000000E+00  3.470480508E+02  3.470480508E+02  0.000000000E+00  0.00000E+00  9.000E+00
       2    -1     0     0   517     0  0.000000000E+00  0.000000000E+00 -3.319444571E+02  3.319444571E+02  0.000000000E+00  0.00000E+00  9.000E+00
      21     1     1     2   513   515 -3.478991360E+01 -1.376860308E+01 -5.030935619E+00  3.775212355E+01  1.377370359E-06  0.00000E+00  9.000E+00
      21     1     1     2   517   512  2.735195077E+01  1.141054397E+01  3.299741347E+02  3.313023684E+02  6.607249480E-06  0.00000E+00  9.000E+00
       2     1     1     2   515     0  7.437962832E+00  2.358059112E+00 -3.098396054E+02  3.099380160E+02  3.300000131E-01  0.00000E+00  9.000E+00
</event>
<event>
      5  10001  2.02673E+08  1.17117E+01 -1.00000E+00  1.88092E-01
       1    -1     0     0   511     0  0.000000000E+00  0.000000000E+00  1.169518830E+03  1.169518830E+03  0.000000000E+00  0.00000E+00  9.000E+00
       2    -1     0     0   514     0  0.000000000E+00  0.000000000E+00 -4.375536315E+00  4.375536315E+00  0.000000000E+00  0.00000E+00  9.000E+00
      21     1     1     2   514   512 -3.485417975E+01  3.625125707E-01  5.226371343E+02  5.237981667E+02  0.000000000E+00  0.00000E+00  9.000E+00
       2     1     1     2   511     0  3.587540909E+01  1.130436543E+01  9.103136767E+01  9.849696673E+01  3.300000131E-01  0.00000E+00  9.000E+00
       1     1     1     2   512     0 -1.021229344E+00 -1.166687800E+01  5.514747914E+02  5.515992326E+02  3.300000131E-01  0.00000E+00  9.000E+00
</event>
<event>
      5  10001  2.02673E+08  2.97553E+01 -1.00000E+00  1.53252E-01
      21    -1     0     0   513   514  0.000000000E+00  0.000000000E+00  9.828749111E+01  9.828749111E+01  0.000000000E+00  0.00000E+00  9.000E+00
      21    -1     0     0   512   515  0.000000000E+00  0.000000000E+00 -1.269288279E+01  1.269288279E+01  0.000000000E+00  0.00000E+00  9.000E+00
      21     1     1     2   513   515  1.558541326E+01 -2.576593947E+01  3.538804834E+01  4.646614583E+01  6.743495762E-07  0.00000E+00  9.000E+00
      21     1     1     2   512   511 -8.332621904E+00  9.956766983E+00  1.837436036E+00  1.311281693E+01  1.873046918E-07  0.00000E+00  9.000E+00
      21     1     1     2   511   514 -7.252791359E+00  1.580917248E+01  4.836912394E+01  5.140141114E+01  0.000000000E+00  0.00000E+00  9.000E+00
</event>
<event>
      5  10001  2.02673E+08  2.09071E+01 -1.00000E+00  1.64754E-01
      21    -1     0     0   511   512  0.000000000E+00  0.000000000E+00  4.218846880E+01  4.218846880E+01  0.000000000E+00  0.00000E+00  9.000E+00
       3    -1     0     0   514     0  0.000000000E+00  0.000000000E+00 -1.182764258E+02  1.182764258E+02  0.000000000E+00  0.00000E+00  9.000E+00
      21     1     1     2   513   512  2.050334073E+01  6.224142006E+00  2.718717778E+01  3.461603040E+01  1.469710828E-06  0.00000E+00  9.000E+00
       3     1     1     2   511     0 -3.994845351E+01 -1.806610470E-01 -9.640988001E+01  1.043600812E+02  5.000000000E-01  0.00000E+00  9.000E+00
      21     1     1     2   514   513  1.944511277E+01 -6.043480959E+00 -6.865254745E+00  2.148878302E+01  2.230201594E-07  0.00000E+00  9.000E+00
</event>
<event>
      5  10001  2.02673E+08  1.38350E+01 -1.00000E+00  1.80707E-01
      21    -1     0     0   515   514  0.000000000E+00  0.000000000E+00  1.822784215E+02  1.822784215E+02  0.000000000E+00  0.00000E+00  9.000E+00
      21    -1     0     0   512   513  0.000000000E+00  0.000000000E+00 -1.209944286E+02  1.209944286E+02  0.000000000E+00  0.00000E+00  9.000E+00
      21     1     1     2   515   513  3.158198205E+01 -3.064522554E+01  1.679031944E+02  1.735742899E+02  2.697398305E-06  0.00000E+00  9.000E+00
      21     1     1     2   512   511 -2.591898485E+01  3.407466472E+01 -1.127939043E+02  1.206455196E+02  3.015782986E-06  0.00000E+00  9.000E+00
      21     1     1     2   511   514 -5.662997191E+00 -3.429439180E+00  6.174702788E+00  9.053040638E+00  2.064765462E-07  0.00000E+00  9.000E+00
</event>
<event>
      5  10001  2.02673E+08  2.48478E+01 -1.00000E+00  1.58912E-01
      21    -1     0     0   516   512  0.000000000E+00  0.000000000E+00  2.269915028E+01  2.269915028E+01  0.000000000E+00  0.00000E+00  9.000E+00
      21    -1     0     0   517   514  0.000000000E+00  0.000000000E+00 -9.657838783E+01  9.657838783E+01  0.000000000E+00  0.00000E+00  9.000E+00
      21     1     1     2   516   514 -2.385064894E+01 -1.207527303E+01 -7.150367898E+01  7.633768258E+01  0.000000000E+00  0.00000E+00  9.000E+00
      21     1     1     2   513   512  6.916071327E+00  4.386571225E+00  1.525413441E+01  1.731365548E+01  3.371747881E-07  0.00000E+00  9.000E+00
      21     1     1     2   517   513  1.693457761E+01  7.688701802E+00 -1.762969297E+01  2.562620004E+01  3.371747881E-07  0.00000E+00  9.000E+00
</event>
<event>
      5  10001  2.02673E+08  1.51141E+01 -1.00000E+00  1.77027E-01
      21    -1     0     0   511   513  0.000000000E+00  0.000000000E+00  1.223806509E+02  1.223806509E+02  0.000000000E+00  0.00000E+00  9.000E+00
      21    -1     0     0   517   515  0.000000000E+00  0.000000000E+00 -1.453069646E+01  1.453069646E+01  0.000000000E+00  0.00000E+00  9.000E+00
      21     1     1     2   511   515 -1.496379651E+01  2.730915933E+01  7.960248282E+00  3.214142097E+01  8.513246093E-07  0.00000E+00  9.000E+00
      21     1     1     2   517   512  1.148217586E+00 -1.867037065E+00  1.301222803E+01  1.319554127E+01  0.000000000E+00  0.00000E+00  9.000E+00
      21     1     1     2   512   513  1.381557893E+01 -2.544212226E+01  8.687747811E+01  9.157438512E+01  9.536743164E-07  0.00000E+00  9.000E+00
</event>
<event>
      5  10001  2.02673E+08  5.42165E+01 -1.00000E+00  1.37071E-01
      21    -1     0     0   514   512  0.000000000E+00  0.000000000E+00  2.739834247E+02  2.739834247E+02  0.000000000E+00  0.00000E+00  9.000E+00
      21    -1     0     0   513   514  0.000000000E+00  0.000000000E+00 -3.292664253E+01  3.292664253E+01  0.000000000E+00  0.00000E+00  9.000E+00
      21     1     1     2   516   512  1.275057149E+01 -3.062435798E+01  2.599861828E+02  2.620939595E+02  0.000000000E+00  0.00000E+00  9.000E+00
      21     1     1     2   513   511 -2.825777135E-01  1.194403169E+01  4.116462796E+00  1.263665340E+01  3.153981341E-07  0.00000E+00  9.000E+00
      21     1     1     2   511   516 -1.246799378E+01  1.868032629E+01 -2.304586342E+01  3.217945431E+01  1.066240300E-06  0.00000E+00  9.000E+00
</event>
<event>
      5  10001  2.02673E+08  3.20059E+01 -1.00000E+00  1.51079E-01
      21    -1     0     0   514   513  0.000000000E+00  0.000000000E+00  2.323087354E+01  2.323087354E+01  0.000000000E+00  0.00000E+00  9.000E+00
       2    -1     0     0   512     0  0.000000000E+00  0.000000000E+00 -7.618016583E+02  7.618016583E+02  0.000000000E+00  0.00000E+00  9.000E+00
      21     1     1     2   512   513 -7.674426432E+01 -2.468369361E+01 -1.111157945E+02  1.372795929E+02  2.336015456E-06  0.00000E+00  9.000E+00
       2     1     1     2   511     0  4.994362196E+01  7.188035100E+00 -6.084316105E+02  6.105204065E+02  3.300000131E-01  0.00000E+00  9.000E+00
      21     1     1     2   514   511  2.680064235E+01  1.749565851E+01 -1.902337984E+01  3.723253252E+01  1.143415337E-06  0.00000E+00  9.000E+00
</event>
<event>
      5  10001  2.02673E+08  2.09428E+01 -1.00000E+00  1.64695E-01
      21    -1     0     0   515   512  0.000000000E+00  0.000000000E+00  4.964495906E+00  4.964495906E+00  0.000000000E+00  0.00000E+00  9.000E+00
      21    -1     0     0   516   515  0.000000000E+00  0.000000000E+00 -5.070750868E+02  5.070750868E+02  0.000000000E+00  0.00000E+00  9.000E+00
      21     1     1     2   511   512  4.031625551E+01 -1.233819037E+01 -1.290121222E+02  1.357267809E+02  1.907348633E-06  0.00000E+00  9.000E+00
      21     1     1     2   516   513 -2.870931378E+01  1.265400330E+01 -1.692168671E+02  1.721008326E+02  3.303624740E-06  0.00000E+00  9.000E+00
      21     1     1     2   513   511 -1.160694173E+01 -3.158129354E-01 -2.038816017E+02  2.042119691E+02  2.697398305E-06  0.00000E+00  9.000E+00
</event>
<event>
      5  10001  2.02673E+08  1.65974E+01 -1.00000E+00  1.73296E-01
      21    -1     0     0   513   514  0.000000000E+00  0.000000000E+00  2.425936896E+01  2.425936896E+01  0.000000000E+00  0.00000E+00  9.000E+00
       5    -1     0     0   512     0  0.000000000E+00  0.000000000E+00 -3.137699231E+02  3.137699231E+02  0.000000000E+00  0.00000E+00  9.000E+00
      21     1     1     2   512   515 -7.649925785E+00 -1.099924396E+01  9.687420258E+00  1.653332524E+01  1.819650832E-06  0.00000E+00  9.000E+00
       5     1     1     2   513     0  2.749406816E+01  2.646801045E+01 -2.930913783E+02  2.956045930E+02  4.800000191E+00  0.00000E+00  9.000E+00
      21     1     1     2   515   514 -1.984414237E+01 -1.546876649E+01 -6.106596100E+00  2.589137383E+01  1.519626234E-06  0.00000E+00  9.000E+00
</event>
<event>
      5  10001  2.02673E+08  1.25882E+01 -1.00000E+00  1.84817E-01
      21    -1     0     0   515   512  0.000000000E+00  0.000000000E+00  2.479172466E+01  2.479172466E+01  0.000000000E+00  0.00000E+00  9.000E+00
       2    -1     0     0   513     0  0.000000000E+00  0.000000000E+00 -1.542227136E+02  1.542227136E+02  0.000000000E+00  0.00000E+00  9.000E+00
      21     1     1     2   515   511 -7.627857923E+00  3.399845503E+01  5.614510402E+00  3.529308556E+01  1.685873940E-07  0.00000E+00  9.000E+00
       2     1     1     2   511     0  1.832043645E+01 -2.735559310E+01 -6.857922758E+01  7.607355796E+01  3.300000131E-01  0.00000E+00  9.000E+00
      21     1     1     2   513   512 -1.069257853E+01 -6.642861933E+00 -6.646627177E+01  6.764779474E+01  1.348699152E-06  0.00000E+00  9.000E+00
</event>
<event>
      5  10001  2.02673E+08  1.70424E+01 -1.00000E+00  1.72270E-01
      21    -1     0     0   514   511  0.000000000E+00  0.000000000E+00  7.351131207E+01  7.351131207E+01  0.000000000E+00  0.00000E+00  9.000E+00
      21    -1     0     0   512   514  0.000000000E+00  0.000000000E+00 -5.960504801E+01  5.960504801E+01  0.000000000E+00  0.00000E+00  9.000E+00
      21     1     1     2   513   516 -1.060957184E+01 -4.156442951E+01 -1.035902418E+01  4.413019598E+01  1.300419821E-06  0.00000E+00  9.000E+00
      21     1     1     2   512   513 -6.283891598E+00  4.381283987E+01 -1.455238629E+01  4.659210425E+01  7.348554138E-07  0.00000E+00  9.000E+00
      21     1     1     2   516   511  1.689346344E+01 -2.248410363E+00  3.881767453E+01  4.239405986E+01  4.768371582E-07  0.00000E+00  9.000E+00
</event>
<event>
      5  10001  2.02673E+08  1.15986E+01 -1.00000E+00  1.88541E-01
      21    -1     0     0   515   514  0.000000000E+00  0.000000000E+00  1.191882088E+02  1.191882088E+02  0.000000000E+00  0.00000E+00  9.000E+00
      21    -1     0     0   511   515  0.000000000E+00  0.000000000E+00 -1.187242790E+02  1.187242790E+02  0.000000000E+00  0.00000E+00  9.000E+00
      21     1     1     2   512   513 -2.427198761E+01  1.720884811E+01  5.235089259E+01  6.021536176E+01  1.348699152E-06  0.00000E+00  9.000E+00
      21     1     1     2   511   512  3.442096980E+01 -2.282363177E+01 -1.104903748E+02  1.179569593E+02  2.336015456E-06  0.00000E+00  9.000E+00
      21     1     1     2   513   514 -1.014898219E+01  5.614783663E+00  5.860341192E+01  5.974016675E+01  0.000000000E+00  0.00000E+00  9.000E+00
</event>
<event>
      5  10001  2.02673E+08  1.51428E+01 -1.00000E+00  1.76950E-01
      21    -1     0     0   516   512  0.000000000E+00  0.000000000E+00  9.636731636E+00  9.636731636E+00  0.000000000E+00  0.00000E+00  9.000E+00
      21    -1     0     0   513   514  0.000000000E+00  0.000000000E+00 -3.851939663E+02  3.851939663E+02  0.000000000E+00  0.00000E+00  9.000E+00
      21     1     1     2   516   514  4.140287035E+01  2.615950629E+01 -2.122416994E+02  2.178188615E+02  4.672030912E-06  0.00000E+00  9.000E+00
      21     1     1     2   513   511 -3.101138477E+01 -3.717405132E+01 -1.469337636E+02  1.547034162E+02  3.814697266E-06  0.00000E+00  9.000E+00
      21     1     1     2   511   512 -1.039148558E+01  1.101454502E+01 -1.638177159E+01  2.230842027E+01  2.384185791E-07  0.00000E+00  9.000E+00
</event>
<event>
      5  10001  2.02673E+08  1.10017E+01 -1.00000E+00  1.91028E-01
       2    -1     0     0   511     0  0.000000000E+00  0.000000000E+00  6.067021355E+02  6.067021355E+02  0.000000000E+00  0.00000E+00  9.000E+00
      -1    -1     0     0     0   513  0.000000000E+00  0.000000000E+00 -4.426467014E+01  4.426467014E+01  0.000000000E+00  0.00000E+00  9.000E+00
      -1     1     1     2     0   512 -2.941314988E+01 -2.451029577E+00 -3.546931120E+01  4.614457573E+01  3.300000131E-01  0.00000E+00  9.000E+00
       2     1     1     2   512     0  3.473187379E+01 -7.179588884E+00  5.904894682E+02  5.915536920E+02  3.300000131E-01  0.00000E+00  9.000E+00
      21     1     1     2   511   513 -5.318723908E+00  9.630618461E+00  7.417308406E+00  1.326853797E+01  1.192092896E-07  0.00000E+00  9.000E+00
</event>
<event>
      5  10001  2.02673E+08  1.52510E+01 -1.00000E+00  1.76660E-01
      -2    -1     0     0     0   514  0.000000000E+00  0.000000000E+00  8.270272991E+01  8.270272991E+01  0.000000000E+00  0.00000E+00  9.000E+00
      21    -1     0     0   512   513  0.000000000E+00  0.000000000E+00 -5.745777259E+01  5.745777259E+01  0.000000000E+00  0.00000E+00  9.000E+00
      -2     1     1     2     0   513 -2.375686005E+01  2.723440015E+01  6.668624870E+01  7.585028422E+01  3.300000131E-01  0.00000E+00  9.000E+00
      21     1     1     2   511   514  2.408056300E+01 -1.198695135E+01 -8.833819455E+00  2.831248635E+01  9.310543151E-07  0.00000E+00  9.000E+00
      21     1     1     2   512   511 -3.237029496E-01 -1.524744880E+01 -3.260747193E+01  3.599773193E+01  0.000000000E+00  0.00000E+00  9.000E+00
</event>
<event>
      5  10001  2.02673E+08  1.08375E+01 -1.00000E+00  1.91748E-01
      21    -1     0     0   515   511  0.000000000E+00  0.000000000E+00  1.344692158E+02  1.344692158E+02  0.000000000E+00  0.00000E+00  9.000E+00
      21    -1     0     0   512   516  0.000000000E+00  0.000000000E+00 -1.489769742E+02  1.489769742E+02  0.000000000E+00  0.00000E+00  9.000E+00
      21     1     1     2   515   516 -3.280521195E+01  1.681019083E+01  1.295147187E+02  1.346581851E+02  0.000000000E+00  0.00000E+00  9.000E+00
      21     1     1     2   512   513  8.266887914E+00 -1.466051031E+00 -3.436928198E+01  3.537991359E+01  9.536743164E-07  0.00000E+00  9.000E+00
      21     1     1     2   513   511  2.453832403E+01 -1.534413980E+01 -1.096531951E+02  1.134080913E+02  1.907348633E-06  0.00000E+00  9.000E+00
</event>
<event>
      5  10001  2.02673E+08  4.89146E+01 -1.00000E+00  1.39592E-01
       1    -1     0     0   512     0  0.000000000E+00  0.000000000E+00  4.302763965E+02  4.302763965E+02  0.000000000E+00  0.00000E+00  9.000E+00
      21    -1     0     0   515   514  0.000000000E+00  0.000000000E+00 -5.490796855E+01  5.490796855E+01  0.000000000E+00  0.00000E+00  9.000E+00
      21     1     1     2   512   514  6.141903172E+00  7.492061948E+01  2.024146180E+02  2.159224392E+02  0.000000000E+00  0.00000E+00  9.000E+00
       1     1     1     2   513     0  2.800350309E+01 -1.099452711E+02  1.866844539E+02  2.184567532E+02  3.300000131E-01  0.00000E+00  9.000E+00
      21     1     1     2   515   513 -3.414540626E+01  3.502465158E+01 -1.373064383E+01  5.080517264E+01  1.155776944E-06  0.00000E+00  9.000E+00
</event>
<event>
      5  10001  2.02673E+08  2.10661E+01 -1.00000E+00  1.64489E-01
      21    -1     0     0   512   513  0.000000000E+00  0.000000000E+00  4.500828374E+01  4.500828374E+01  0.000000000E+00  0.00000E+00  9.000E+00
      21    -1     0     0   515   511  0.000000000E+00  0.000000000E+00 -3.397421295E+02  3.397421295E+02  0.000000000E+00  0.00000E+00  9.000E+00
      21     1     1     2   515   516 -6.193229849E+00  2.761528262E+01 -3.109312344E+02  3.122165794E+02  6.607249480E-06  0.00000E+00  9.000E+00
      21     1     1     2   516   513  2.725833319E+01 -2.781892357E+01  2.838748639E+01  4.819500618E+01  1.168007728E-06  0.00000E+00  9.000E+00
      21     1     1     2   512   511 -2.106510334E+01  2.036409482E-01 -1.219009772E+01  2.433882764E+01  3.769728732E-07  0.00000E+00  9.000E+00
</event>
<event>
      5  10001  2.02673E+08  2.62581E+01 -1.00000E+00  1.57133E-01
       2    -1     0     0   514     0  0.000000000E+00  0.000000000E+00  7.849837680E+00  7.849837680E+00  0.000000000E+00  0.00000E+00  9.000E+00
      21    -1     0     0   512   511  0.000000000E+00  0.000000000E+00 -2.143769722E+02  2.143769722E+02  0.000000000E+00  0.00000E+00  9.000E+00
      21     1     1     2   514   513  2.764581594E+01 -7.891892915E+00 -1.063049866E+02  1.101241267E+02  1.348699152E-06  0.00000E+00  9.000E+00
       2     1     1     2   512     0 -2.831812968E+01  1.789737056E+01 -9.512839896E+01  1.008551116E+02  3.300000131E-01  0.00000E+00  9.000E+00
      21     1     1     2   513   511  6.723137388E-01 -1.000547764E+01 -5.093749028E+00  1.124757164E+01  3.424026159E-07  0.00000E+00  9.000E+00
</event>
<event>
      5  10001  2.02673E+08  8.78222E+00 -1.00000E+00  2.02448E-01
      21    -1     0     0   512   513  0.000000000E+00  0.000000000E+00  1.455656008E+02  1.455656008E+02  0.000000000E+00  0.00000E+00  9.000E+00
       2    -1     0     0   513     0  0.000000000E+00  0.000000000E+00 -6.549712350E+00  6.549712350E+00  0.000000000E+00  0.00000E+00  9.000E+00
      21     1     1     2   512   514 -8.273211574E+00  1.343017739E+01  3.230231979E+01  3.594795625E+01  4.768371582E-07  0.00000E+00  9.000E+00
       2     1     1     2   515     0  8.752015392E+00 -2.893864112E+01  6.593542267E+01  7.253710489E+01  3.300000131E-01  0.00000E+00  9.000E+00
      21     1     1     2   514   515 -4.788038173E-01  1.550846373E+01  4.077814601E+01  4.363025204E+01  4.768371582E-07  0.00000E+00  9.000E+00
</event>
<event>
      5  10001  2.02673E+08  1.90230E+01 -1.00000E+00  1.68141E-01
      21    -1     0     0   511   514  0.000000000E+00  0.000000000E+00  3.035931452E+02  3.035931452E+02  0.000000000E+00  0.00000E+00  9.000E+00
      21    -1     0     0   513   516  0.000000000E+00  0.000000000E+00 -1.209164443E+01  1.209164443E+01  0.000000000E+00  0.00000E+00  9.000E+00
      21     1     1     2   511   516 -1.617855214E+01  5.280000632E+01  9.371681374E+01  1.087769617E+02  2.336015456E-06  0.00000E+00  9.000E+00
      21     1     1     2   513   512  1.795279890E+01 -3.619550899E+01  1.025861021E+02  1.102557309E+02  0.000000000E+00  0.00000E+00  9.000E+00
      21     1     1     2   512   514 -1.774246760E+00 -1.660449733E+01  9.519858496E+01  9.665209704E+01  1.348699152E-06  0.00000E+00  9.000E+00
</event>
<event>
      5  10001  2.02673E+08  1.32364E+01 -1.00000E+00  1.82608E-01
      21    -1     0     0   513   514  0.000000000E+00  0.000000000E+00  6.586366275E+01  6.586366275E+01  0.000000000E+00  0.00000E+00  9.000E+00
       1    -1     0     0   514     0  0.000000000E+00  0.000000000E+00 -5.259036494E+01  5.259036494E+01  0.000000000E+00  0.00000E+00  9.000E+00
      21     1     1     2   513   512 -2.682479101E+01  9.703293954E+00  5.444018356E+01  6.146101945E+01  6.743495762E-07  0.00000E+00  9.000E+00
       1     1     1     2   511     0  1.596082831E+01 -4.951816302E+00 -4.190196952E+01  4.511266423E+01  3.300000131E-01  0.00000E+00  9.000E+00
      21     1     1     2   512   511  1.086396270E+01 -4.751477652E+00  7.350837710E-01  1.188034400E+01  1.911186477E-07  0.00000E+00  9.000E+00
</event>
<event>
      5  10001  2.02673E+08  6.17168E+01 -1.00000E+00  1.34025E-01
      21    -1     0     0   515   511  0.000000000E+00  0.000000000E+00  3.480651974E+01  3.480651974E+01  0.000000000E+00  0.00000E+00  9.000E+00
      21    -1     0     0   512   516  0.000000000E+00  0.000000000E+00 -4.541472689E+01  4.541472689E+01  0.000000000E+00  0.00000E+00  9.000E+00
      21     1     1     2   515   516  7.782462092E+00 -8.025833205E+00 -8.412962892E+00  1.399137804E+01  2.665600750E-07  0.00000E+00  9.000E+00
      21     1     1     2   513   511 -3.865572911E+00 -6.250659959E+00  2.995051661E+01  3.083904747E+01  4.768371582E-07  0.00000E+00  9.000E+00
      21     1     1     2   512   513 -3.916889181E+00  1.427649316E+01 -3.214576087E+01  3.539082112E+01  8.259061849E-07  0.00000E+00  9.000E+00
</event>
<event>
      5  10001  2.02673E+08  7.72028E+00 -1.00000E+00  2.09645E-01
      21    -1     0     0   514   513  0.000000000E+00  0.000000000E+00  8.061164196E+01  8.061164196E+01  0.000000000E+00  0.00000E+00  9.000E+00
      21    -1     0     0   511   517  0.000000000E+00  0.000000000E+00 -1.103101787E+02  1.103101787E+02  0.000000000E+00  0.00000E+00  9.000E+00
      21     1     1     2   514   517  2.083422390E+01  2.172250252E+01  6.735835131E+01  7.377722882E+01  1.348699152E-06  0.00000E+00  9.000E+00
      21     1     1     2   512   513 -1.506482776E+01 -2.685248556E+01 -1.416121460E+01  3.389019055E+01  9.973764736E-07  0.00000E+00  9.000E+00
      21     1     1     2   511   512 -5.769396139E+00  5.129983045E+00 -8.289567341E+01  8.325440125E+01  9.536743164E-07  0.00000E+00  9.000E+00
</event>
<event>
      5  10001  2.02673E+08  3.89545E+01 -1.00000E+00  1.45526E-01
      21    -1     0     0   515   512  0.000000000E+00  0.000000000E+00  3.433236568E+01  3.433236568E+01  0.000000000E+00  0.00000E+00  9.000E+00
      21    -1     0     0   511   516  0.000000000E+00  0.000000000E+00 -7.082915465E+01  7.082915465E+01  0.000000000E+00  0.00000E+00  9.000E+00
      21     1     1     2   515   516 -2.566445021E+01  1.455346550E+01 -5.391973142E+01  6.146384953E+01  9.536743164E-07  0.00000E+00  9.000E+00
      21     1     1     2   513   512  1.556628881E+01 -7.485282193E+00 -5.111028964E+00  1.801281249E+01  2.920019320E-07  0.00000E+00  9.000E+00
      21     1     1     2   511   513  1.009816140E+01 -7.068183308E+00  2.253397141E+01  2.568485831E+01  8.596304120E-07  0.00000E+00  9.000E+00
</event>
<event>
      5  10001  2.02673E+08  2.16295E+01 -1.00000E+00  1.63570E-01
       1    -1     0     0   511     0  0.000000000E+00  0.000000000E+00  2.647650637E+02  2.647650637E+02  0.000000000E+00  0.00000E+00  9.000E+00
      21    -1     0     0   514   513  0.000000000E+00  0.000000000E+00 -5.566653840E+02  5.566653840E+02  0.000000000E+00  0.00000E+00  9.000E+00
      21     1     1     2   511   513  3.123096888E+01  9.556701980E+00 -5.523036905E+02  5.532685338E+02  0.000000000E+00  0.00000E+00  9.000E+00
       1     1     1     2   512     0 -9.191497117E+00 -1.195355355E+01  2.302104763E+02  2.307040168E+02  3.300000131E-01  0.00000E+00  9.000E+00
      21     1     1     2   514   512 -2.203947176E+01  2.396851571E+00  3.019289389E+01  3.745789709E+01  9.536743164E-07  0.00000E+00  9.000E+00
</event>
<event>
      5  10001  2.02673E+08  1.94181E+01 -1.00000E+00  1.67392E-01
      21    -1     0     0   515   512  0.000000000E+00  0.000000000E+00  6.846196120E+01  6.846196120E+01  0.000000000E+00  0.00000E+00  9.000E+00
      21    -1     0     0   514   516  0.000000000E+00  0.000000000E+00 -2.710891960E+01  2.710891960E+01  0.000000000E+00  0.00000E+00  9.000E+00
      21     1     1     2   515   516 -2.006218734E+01 -1.758319292E+01  4.119141323E+01  4.907537629E+01  4.768371582E-07  0.00000E+00  9.000E+00
      21     1     1     2   514   511  2.697304688E+01  2.467273267E+01 -6.564435286E-01  3.656118042E+01  7.211684795E-07  0.00000E+00  9.000E+00
      21     1     1     2   511   512 -6.910859538E+00 -7.089539754E+00  8.180718928E-01  9.934324089E+00  1.649256320E-07  0.00000E+00  9.000E+00
</event>
<event>
      5  10001  2.02673E+08  1.05427E+01 -1.00000E+00  1.93084E-01
      21    -1     0     0   513   512  0.000000000E+00  0.000000000E+00  3.112776521E+01  3.112776521E+01  0.000000000E+00  0.00000E+00  9.000E+00
      -4    -1     0     0     0   514  0.000000000E+00  0.000000000E+00 -5.212709513E+02  5.212709513E+02  0.000000000E+00  0.00000E+00  9.000E+00
      -4     1     1     2     0   511  5.140050261E+01 -1.718629935E+00 -4.322601225E+02  4.353114160E+02  1.500000000E+00  0.00000E+00  9.000E+00
      21     1     1     2   511   512 -4.753462193E+01  1.152649948E+01  8.695640974E+00  4.967911678E+01  1.621421636E-06  0.00000E+00  9.000E+00
      21     1     1     2   513   514 -3.865880680E+00 -9.807869540E+00 -6.657870449E+01  6.740818370E+01  0.000000000E+00  0.00000E+00  9.000E+00
</event>
<event>
      5  10001  2.02673E+08  4.91771E+01 -1.00000E+00  1.39459E-01
      21    -1     0     0   515   512  0.000000000E+00  0.000000000E+00  5.334790441E+01  5.334790441E+01  0.000000000E+00  0.00000E+00  9.000E+00
       1    -1     0     0   511     0  0.000000000E+00  0.000000000E+00 -2.267731944E+02  2.267731944E+02  0.000000000E+00  0.00000E+00  9.000E+00
       1     1     1     2   511     0  2.725176485E+00  3.504885753E+01  2.106502422E+01  4.098405966E+01  3.300000131E-01  0.00000E+00  9.000E+00
       1     1     1     2   515     0 -3.747823744E+01 -2.453788908E+01 -1.976757592E+02  2.026882852E+02  3.300000131E-01  0.00000E+00  9.000E+00
      -1     1     1     2     0   512  3.475306096E+01 -1.051096845E+01  3.185445002E+00  3.644875394E+01  3.300000131E-01  0.00000E+00  9.000E+00
</event>
<event>
      5  10001  2.02673E+08  1.83375E+01 -1.00000E+00  1.69497E-01
       1    -1     0     0   515     0  0.000000000E+00  0.000000000E+00  6.879358903E+01  6.879358903E+01  0.000000000E+00  0.00000E+00  9.000E+00
      21    -1     0     0   513   514  0.000000000E+00  0.000000000E+00 -1.808674404E+01  1.808674404E+01  0.000000000E+00  0.00000E+00  9.000E+00
      21     1     1     2   511   514  3.185898723E+00  2.209835455E+01  2.570273369E+01  3.404581830E+01  8.920806376E-07  0.00000E+00  9.000E+00
       1     1     1     2   513     0 -1.516568566E+01 -2.777357010E+01  2.365501685E+01  3.950997266E+01  3.300000131E-01  0.00000E+00  9.000E+00
      21     1     1     2   515   511  1.197978694E+01  5.675215552E+00  1.349094439E+00  1.332454211E+01  4.161667837E-07  0.00000E+00  9.000E+00
</event>
<event>
      5  10001  2.02673E+08  1.91713E+01 -1.00000E+00  1.67857E-01
      21    -1     0     0   512   513  0.000000000E+00  0.000000000E+00  5.321636558E+00  5.321636558E+00  0.000000000E+00  0.00000E+00  9.000E+00
       2    -1     0     0   515     0  0.000000000E+00  0.000000000E+00 -5.807715603E+02  5.807715603E+02  0.000000000E+00  0.00000E+00  9.000E+00
      21     1     1     2   515   513 -2.051944928E+01  3.737778814E+01 -4.324440484E+02  4.345411394E+02  7.629394531E-06  0.00000E+00  9.000E+00
       2     1     1     2   514     0  4.453444670E+00 -3.320652793E+01 -9.930520688E+01  1.048052464E+02  3.300000131E-01  0.00000E+00  9.000E+00
      21     1     1     2   512   514  1.606600461E+01 -4.171260208E+00 -4.370066849E+01  4.674681104E+01  6.743495762E-07  0.00000E+00  9.000E+00
</event>
<event>
      5  10001  2.02673E+08  9.16449E+00 -1.00000E+00  2.00181E-01
      21    -1     0     0   511   514  0.000000000E+00  0.000000000E+00  2.811396820E+01  2.811396820E+01  0.000000000E+00  0.00000E+00  9.000E+00
      21    -1     0     0   513   516  0.000000000E+00  0.000000000E+00 -5.362695856E+01  5.362695856E+01  0.000000000E+00  0.00000E+00  9.000E+00
      21     1     1     2   511   516  2.762507196E+01  2.386557762E+01 -1.402415455E+01  3.910738174E+01  8.596304120E-07  0.00000E+00  9.000E+00
      21     1     1     2   515   514 -2.808281265E+01 -1.749551566E+01 -1.378945722E+01  3.584531441E+01  7.539457465E-07  0.00000E+00  9.000E+00
      21     1     1     2   513   515  4.577406892E-01 -6.370061957E+00  2.300621415E+00  6.788230606E+00  1.192092896E-07  0.00000E+00  9.000E+00
</event>
<event>
      5  10001  2.02673E+08  2.18812E+01 -1.00000E+00  1.63171E-01
      21    -1     0     0   512   514  0.000000000E+00  0.000000000E+00  4.867251055E+01  4.867251055E+01  0.000000000E+00  0.00000E+00  9.000E+00
      21    -1     0     0   513   512  0.000000000E+00  0.000000000E+00 -3.063483730E+02  3.063483730E+02  0.000000000E+00  0.00000E+00  9.000E+00
      21     1     1     2   515   514 -8.033364764E+00  3.079951073E+01  3.985182972E+01  5.100306993E+01  4.768371582E-07  0.00000E+00  9.000E+00
      21     1     1     2   513   511  1.965297568E+01 -1.778731690E+01 -2.708409713E+02  2.721350029E+02  6.607249480E-06  0.00000E+00  9.000E+00
      21     1     1     2   511   515 -1.161961091E+01 -1.301219383E+01 -2.668672093E+01  3.188281072E+01  5.840038640E-07  0.00000E+00  9.000E+00
</event>
<event>
      5  10001  2.02673E+08  9.09633E+00 -1.00000E+00  2.00574E-01
      21    -1     0     0   515   516  0.000000000E+00  0.000000000E+00  5.760234753E+02  5.760234753E+02  0.000000000E+00  0.00000E+00  9.000E+00
      -2    -1     0     0     0   515  0.000000000E+00  0.000000000E+00 -8.437357727E+00  8.437357727E+00  0.000000000E+00  0.00000E+00  9.000E+00
      -2     1     1     2     0   511 -3.131557371E+01 -1.026651001E+01  2.661629386E+01  4.236274759E+01  3.300000131E-01  0.00000E+00  9.000E+00
      21     1     1     2   512   516  1.535333507E+01  9.815503037E+00  3.438410244E+02  3.443235674E+02  0.000000000E+00  0.00000E+00  9.000E+00
      21     1     1     2   511   512  1.596223864E+01  4.510069768E-01  1.971287993E+02  1.977745181E+02  0.000000000E+00  0.00000E+00  9.000E+00
</event>
<event>
      5  10001  2.02673E+08  3.49576E+01 -1.00000E+00  1.48532E-01
       1    -1     0     0   511     0  0.000000000E+00  0.000000000E+00  1.630077993E+02  1.630077993E+02  0.000000000E+00  0.00000E+00  9.000E+00
      21    -1     0     0   513   512  0.000000000E+00  0.000000000E+00 -3.852908166E+01  3.852908166E+01  0.000000000E+00  0.00000E+00  9.000E+00
      21     1     1     2   511   512  5.759780199E+01 -1.773735468E+01  4.129545307E+00  6.040839088E+01  1.555441421E-06  0.00000E+00  9.000E+00
       1     1     1     2   514     0 -3.272897269E+01 -5.589589656E+00  8.828764285E+01  9.432521373E+01  3.300000131E-01  0.00000E+00  9.000E+00
      21     1     1     2   513   514 -2.486882930E+01  2.332694434E+01  3.206152946E+01  4.680327632E+01  8.259061849E-07  0.00000E+00  9.000E+00
</event>
<event>
      5  10001  2.02673E+08  7.03182E+00 -1.00000E+00  2.15205E-01
      21    -1     0     0   515   512  0.000000000E+00  0.000000000E+00  3.460304304E+01  3.460304304E+01  0.000000000E+00  0.00000E+00  9.000E+00
      21    -1     0     0   513   516  0.000000000E+00  0.000000000E+00 -9.277069703E+01  9.277069703E+01  0.000000000E+00  0.00000E+00  9.000E+00
      21     1     1     2   515   516 -1.781830031E+01  3.006402650E+01 -7.875280947E+01  8.615882145E+01  9.536743164E-07  0.00000E+00  9.000E+00
      21     1     1     2   513   511  7.684851394E+00 -1.325217947E+01  1.326682435E+01  2.026538502E+01  4.768371582E-07  0.00000E+00  9.000E+00
      21     1     1     2   511   512  1.013344892E+01 -1.681184703E+01  7.318331117E+00  2.094953360E+01  7.052516679E-07  0.00000E+00  9.000E+00
</event>
<event>
      5  10001  2.02673E+08  3.84931E+01 -1.00000E+00  1.45850E-01
       1    -1     0     0   513     0  0.000000000E+00  0.000000000E+00  3.459737539E+01  3.459737539E+01  0.000000000E+00  0.00000E+00  9.000E+00
      21    -1     0     0   511   514  0.000000000E+00  0.000000000E+00 -3.817519067E+01  3.817519067E+01  0.000000000E+00  0.00000E+00  9.000E+00
      21     1     1     2   513   514  2.647960186E+01 -6.970625071E+00  6.197672081E-01  2.738873929E+01  7.142849508E-07  0.00000E+00  9.000E+00
       1     1     1     2   515     0 -1.313438243E+01 -1.223396063E+00  1.541165108E+01  2.028882916E+01  3.300000131E-01  0.00000E+00  9.000E+00
      21     1     1     2   511   515 -1.334521943E+01  8.194021134E+00 -1.960923357E+01  2.509499761E+01  6.307962682E-07  0.00000E+00  9.000E+00
</event>
<event>
      5  10001  2.02673E+08  9.27441E+00 -1.00000E+00  1.99556E-01
      21    -1     0     0   511   512  0.000000000E+00  0.000000000E+00  1.938693350E+02  1.938693350E+02  0.000000000E+00  0.00000E+00  9.000E+00
       4    -1     0     0   515     0  0.000000000E+00  0.000000000E+00 -3.193940592E+01  3.193940592E+01  0.000000000E+00  0.00000E+00  9.000E+00
      21     1     1     2   515   512  3.253378736E+01  2.027524301E+00  1.738731983E+02  1.769023665E+02  0.000000000E+00  0.00000E+00  9.000E+00
       4     1     1     2   513     0 -3.618930382E+01  2.178717963E+00 -1.814413327E+01  4.056934921E+01  1.500000000E+00  0.00000E+00  9.000E+00
      21     1     1     2   511   513  3.655516464E+00 -4.206242264E+00  6.200863969E+00  8.337025163E+00  1.685873940E-07  0.00000E+00  9.000E+00
</event>
<event>
      5  10001  2.02673E+08  6.39752E+01 -1.00000E+00  1.33205E-01
      21    -1     0     0   514   513  0.000000000E+00  0.000000000E+00  1.803185918E+01  1.803185918E+01  0.000000000E+00  0.00000E+00  9.000E+00
      21    -1     0     0   512   516  0.000000000E+00  0.000000000E+00 -4.864192300E+02  4.864192300E+02  0.000000000E+00  0.00000E+00  9.000E+00
      21     1     1     2   514   516  3.913056184E+01 -3.379228563E+01 -3.675578238E+02  3.711763372E+02  5.394796609E-06  0.00000E+00  9.000E+00
      21     1     1     2   515   513  7.375291810E+00  3.209577596E+01 -1.621632400E+01  3.670834957E+01  1.469710828E-06  0.00000E+00  9.000E+00
      21     1     1     2   512   515 -4.650585365E+01  1.696509671E+00 -8.461322304E+01  9.656640245E+01  0.000000000E+00  0.00000E+00  9.000E+00
</event>
<event>
      5  10001  2.02673E+08  1.04159E+01 -1.00000E+00  1.93676E-01
      21    -1     0     0   511   515  0.000000000E+00  0.000000000E+00  3.754078249E+01  3.754078249E+01  0.000000000E+00  0.00000E+00  9.000E+00
      21    -1     0     0   512   511  0.000000000E+00  0.000000000E+00 -9.909040747E+01  9.909040747E+01  0.000000000E+00  0.00000E+00  9.000E+00
      21     1     1     2   512   517 -3.212233435E+01 -2.993654062E+01 -6.964735372E+01  8.233343615E+01  1.348699152E-06  0.00000E+00  9.000E+00
      21     1     1     2   513   515  3.801419609E+01  2.829577762E+01  8.592094347E+00  4.816175060E+01  2.384185791E-07  0.00000E+00  9.000E+00
      21     1     1     2   517   513 -5.891861740E+00  1.640763000E+00 -4.943656037E-01  6.136003205E+00  1.093739141E-07  0.00000E+00  9.000E+00
</event>
<event>
      5  10001  2.02673E+08  1.21993E+01 -1.00000E+00  1.86226E-01
      21    -1     0     0   514   513  0.000000000E+00  0.000000000E+00  7.834200261E+01  7.834200261E+01  0.000000000E+00  0.00000E+00  9.000E+00
      21    -1     0     0   512   516  0.000000000E+00  0.000000000E+00 -2.713853612E+01  2.713853612E+01  0.000000000E+00  0.00000E+00  9.000E+00
      21     1     1     2   514   516 -3.465524028E+01 -1.861987609E+01  4.563709530E+01  6.025304915E+01  9.536743164E-07  0.00000E+00  9.000E+00
      21     1     1     2   512   511  2.996367200E+01  1.994528831E+01  1.127586211E+01  3.771977243E+01  1.092571186E-06  0.00000E+00  9.000E+00
      21     1     1     2   511   513  4.691568274E+00 -1.325412226E+00 -5.709490914E+00  7.507717158E+00  1.685873940E-07  0.00000E+00  9.000E+00
</event>
<event>
      5  10001  2.02673E+08  1.45119E+01 -1.00000E+00  1.78699E-01
       1    -1     0     0   512     0  0.000000000E+00  0.000000000E+00  1.810564827E+02  1.810564827E+02  0.000000000E+00  0.00000E+00  9.000E+00
      21    -1     0     0   511   515  0.000000000E+00  0.000000000E+00 -6.236993049E+00  6.236993049E+00  0.000000000E+00  0.00000E+00  9.000E+00
      21     1     1     2   514   515  1.028287156E+01 -1.059447361E+00  3.043377598E+01  3.214147782E+01  0.000000000E+00  0.00000E+00  9.000E+00
       1     1     1     2   511     0 -3.079695605E+01  5.960146234E+00  1.134741726E+02  1.177305083E+02  3.300000131E-01  0.00000E+00  9.000E+00
      21     1     1     2   512   514  2.051408449E+01 -4.900698873E+00  3.091154106E+01  3.742148958E+01  0.000000000E+00  0.00000E+00  9.000E+00
</event>
<event>
      5  10001  2.02673E+08  5.50619E+01 -1.00000E+00  1.36699E-01
      21    -1     0     0   513   514  0.000000000E+00  0.000000000E+00  2.128685410E+02  2.128685410E+02  0.000000000E+00  0.00000E+00  9.000E+00
      21    -1     0     0   516   513  0.000000000E+00  0.000000000E+00 -6.604552590E+01  6.604552590E+01  0.000000000E+00  0.00000E+00  9.000E+00
      21     1     1     2   511   514  2.998189062E+00  3.818305358E+01  1.999558100E+02  2.035909150E+02  2.697398305E-06  0.00000E+00  9.000E+00
      21     1     1     2   516   515 -1.281891501E+01 -2.268945603E+01 -9.068376475E+00  2.759296013E+01  1.092571186E-06  0.00000E+00  9.000E+00
      21     1     1     2   515   511  9.820725945E+00 -1.549359755E+01 -4.406441849E+01  4.773019170E+01  0.000000000E+00  0.00000E+00  9.000E+00
</event>
<event>
      5  10001  2.02673E+08  7.97612E+00 -1.00000E+00  2.07774E-01
       1    -1     0     0   515     0  0.000000000E+00  0.000000000E+00  3.484857877E+02  3.484857877E+02  0.000000000E+00  0.00000E+00  9.000E+00
      21    -1     0     0   512   513  0.000000000E+00  0.000000000E+00 -1.756382188E+01  1.756382188E+01  0.000000000E+00  0.00000E+00  9.000E+00
      21     1     1     2   515   514 -1.763265743E+01  6.237591183E+00 -5.718155465E+00  1.955800229E+01  1.177097419E-06  0.00000E+00  9.000E+00
       1     1     1     2   512     0  3.067128419E+01 -5.747721280E+00  3.306760289E+02  3.321453131E+02  3.300000131E-01  0.00000E+00  9.000E+00
      21     1     1     2   514   513 -1.303862677E+01 -4.898699032E-01  5.964092324E+00  1.434629422E+01  2.920019320E-07  0.00000E+00  9.000E+00
</event>
<event>
      5  10001  2.02673E+08  6.84260E+01 -1.00000E+00  1.31697E-01
      21    -1     0     0   511   512  0.000000000E+00  0.000000000E+00  6.053708593E+01  6.053708593E+01  0.000000000E+00  0.00000E+00  9.000E+00
      21    -1     0     0   514   516  0.000000000E+00  0.000000000E+00 -6.694365357E+01  6.694365357E+01  0.000000000E+00  0.00000E+00  9.000E+00
      21     1     1     2   511   516  4.378859880E+01 -1.036344691E+01 -4.477361363E+00  4.522045093E+01  6.556510925E-07  0.00000E+00  9.000E+00
      21     1     1     2   514   515 -1.803487150E+01  1.656242433E+01  3.131589055E+01  3.975242748E+01  3.371747881E-07  0.00000E+00  9.000E+00
      21     1     1     2   515   512 -2.575372730E+01 -6.198977420E+00 -3.324509683E+01  4.250786109E+01  6.743495762E-07  0.00000E+00  9.000E+00
</event>
<event>
      5  10001  2.02673E+08  1.49317E+01 -1.00000E+00  1.77523E-01
      21    -1     0     0   513   512  0.000000000E+00  0.000000000E+00  5.124938174E+00  5.124938174E+00  0.000000000E+00  0.00000E+00  9.000E+00
       1    -1     0     0   514     0  0.000000000E+00  0.000000000E+00 -7.466764259E+02  7.466764259E+02  0.000000000E+00  0.00000E+00  9.000E+00
      21     1     1     2   514   512 -3.046658012E+01 -1.757973568E+01 -6.253504443E+01  7.174880760E+01  2.336015456E-06  0.00000E+00  9.000E+00
       1     1     1     2   511     0  7.611648973E+00  9.799448243E+00 -3.090727293E+02  3.093218830E+02  3.300000131E-01  0.00000E+00  9.000E+00
      21     1     1     2   513   511  2.285493114E+01  7.780287440E+00 -3.699437140E+02  3.707306735E+02  5.394796609E-06  0.00000E+00  9.000E+00
</event>
<event>
      5  10001  2.02673E+08  3.98428E+01 -1.00000E+00  1.44915E-01
       2    -1     0     0   513     0  0.000000000E+00  0.000000000E+00  7.465038598E+02  7.465038598E+02  0.000000000E+00  0.00000E+00  9.000E+00
      -4    -1     0     0     0   512  0.000000000E+00  0.000000000E+00 -7.379287597E+01  7.379287597E+01  0.000000000E+00  0.00000E+00  9.000E+00
      -4     1     1     2     0   514  1.495948942E+01  2.655886767E+01 -5.533412503E+01  6.319236638E+01  1.500000000E+00  0.00000E+00  9.000E+00
       2     1     1     2   514     0 -6.364865937E+00 -6.546305826E+01  7.105543039E+02  7.135919361E+02  3.300000131E-01  0.00000E+00  9.000E+00
      21     1     1     2   513   512 -8.594623484E+00  3.890419059E+01  1.749080500E+01  4.351243337E+01  4.129530925E-07  0.00000E+00  9.000E+00
</event>
<event>
      5  10001  2.02673E+08  1.27876E+01 -1.00000E+00  1.84120E-01
      21    -1     0     0   511   516  0.000000000E+00  0.000000000E+00  1.706804524E+01  1.706804524E+01  0.000000000E+00  0.00000E+00  9.000E+00
      21    -1     0     0   515   511  0.000000000E+00  0.000000000E+00 -1.340271665E+02  1.340271665E+02  0.000000000E+00  0.00000E+00  9.000E+00
      21     1     1     2   512   516 -3.423775468E+01 -7.298117115E+00 -8.788768322E+00  3.609333467E+01  1.192092896E-07  0.00000E+00  9.000E+00
      21     1     1     2   514   512  2.789885677E+01  3.634275189E-01 -6.358311839E+01  6.943551852E+01  1.784161275E-06  0.00000E+00  9.000E+00
      21     1     1     2   515   514  6.338897915E+00  6.934689596E+00 -4.458723451E+01  4.556635851E+01  4.768371582E-07  0.00000E+00  9.000E+00
</event>
<event>
      5  10001  2.02673E+08  1.26545E+01 -1.00000E+00  1.84583E-01
      21    -1     0     0   513   512  0.000000000E+00  0.000000000E+00  2.737799843E+02  2.737799843E+02  0.000000000E+00  0.00000E+00  9.000E+00
      21    -1     0     0   515   513  0.000000000E+00  0.000000000E+00 -1.217140832E+01  1.217140832E+01  0.000000000E+00  0.00000E+00  9.000E+00
      21     1     1     2   514   512  3.782742716E+01 -1.870428546E+01  2.153686041E+02  2.194638927E+02  0.000000000E+00  0.00000E+00  9.000E+00
      21     1     1     2   511   514 -2.699959221E+01  9.101725088E+00  1.532427695E+01  3.235201451E+01  7.725644944E-07  0.00000E+00  9.000E+00
      21     1     1     2   515   511 -1.082783495E+01  9.602560369E+00  3.091569491E+01  3.413548545E+01  4.768371582E-07  0.00000E+00  9.000E+00
</event>
<event>
      5  10001  2.02673E+08  1.74535E+01 -1.00000E+00  1.71358E-01
      21    -1     0     0   514   511  0.000000000E+00  0.000000000E+00  1.486965735E+01  1.486965735E+01  0.000000000E+00  0.00000E+00  9.000E+00
      -4    -1     0     0     0   516  0.000000000E+00  0.000000000E+00 -1.272506525E+02  1.272506525E+02  0.000000000E+00  0.00000E+00  9.000E+00
      -4     1     1     2     0   511 -2.412508983E+01 -1.668636183E+01 -1.004868284E+02  1.046914863E+02  1.500000000E+00  0.00000E+00  9.000E+00
      21     1     1     2   514   512  1.732040280E+01  7.386193548E-01 -1.962099510E+00  1.744682625E+01  5.255696800E-07  0.00000E+00  9.000E+00
      21     1     1     2   512   516  6.804687035E+00  1.594774248E+01 -9.932067279E+00  1.998199730E+01  5.057621821E-07  0.00000E+00  9.000E+00
</event>
<event>
      5  10001  2.02673E+08  1.70906E+01 -1.00000E+00  1.72162E-01
      21    -1     0     0   513   511  0.000000000E+00  0.000000000E+00  1.675767629E+01  1.675767629E+01  0.000000000E+00  0.00000E+00  9.000E+00
       2    -1     0     0   514     0  0.000000000E+00  0.000000000E+00 -5.115948780E+02  5.115948780E+02  0.000000000E+00  0.00000E+00  9.000E+00
      21     1     1     2   513   512  2.050671672E+01 -3.527880471E+01 -1.120481232E+01  4.231627715E+01  1.343420466E-06  0.00000E+00  9.000E+00
       2     1     1     2   512     0 -9.133632793E+00  2.252191839E+01 -3.964598411E+02  3.972041975E+02  3.300000131E-01  0.00000E+00  9.000E+00
      21     1     1     2   514   511 -1.137308393E+01  1.275688632E+01 -8.717254836E+01  8.883207964E+01  2.132480600E-06  0.00000E+00  9.000E+00
</event>
<event>
      5  10001  2.02673E+08  8.13987E+00 -1.00000E+00  2.06626E-01
      21    -1     0     0   513   511  0.000000000E+00  0.000000000E+00  1.563639847E+01  1.563639847E+01  0.000000000E+00  0.00000E+00  9.000E+00
       1    -1     0     0   512     0  0.000000000E+00  0.000000000E+00 -1.289152513E+02  1.289152513E+02  0.000000000E+00  0.00000E+00  9.000E+00
      21     1     1     2   512   511 -5.407878987E+00  2.803684094E+01 -4.164966258E+01  5.049756428E+01  4.768371582E-07  0.00000E+00  9.000E+00
       1     1     1     2   514     0  9.389161230E+00 -3.513647614E+01 -7.640260436E+01  8.461793638E+01  3.300000131E-01  0.00000E+00  9.000E+00
      21     1     1     2   513   514 -3.981282243E+00  7.099635202E+00  4.773414090E+00  9.436149129E+00  2.980232239E-07  0.00000E+00  9.000E+00
</event>
<event>
      5  10001  2.02673E+08  2.44640E+01 -1.00000E+00  1.59421E-01
      21    -1     0     0   511   515  0.000000000E+00  0.000000000E+00  5.541471725E+01  5.541471725E+01  0.000000000E+00  0.00000E+00  9.000E+00
      21    -1     0     0   513   514  0.000000000E+00  0.000000000E+00 -1.693628768E+02  1.693628768E+02  0.000000000E+00  0.00000E+00  9.000E+00
      -4     1     1     2     0   514 -4.097486825E+01  2.161548120E+01 -1.293489982E+02  1.374029920E+02  1.500000000E+00  0.00000E+00  9.000E+00
      21     1     1     2   513   515  2.348039464E+01 -4.519732122E+00 -2.843567093E+01  3.715298497E+01  8.259061849E-07  0.00000E+00  9.000E+00
       4     1     1     2   511     0  1.749447361E+01 -1.709574908E+01  4.383650966E+01  5.022161708E+01  1.500000000E+00  0.00000E+00  9.000E+00
</event>
<event>
      5  10001  2.02673E+08  1.12576E+01 -1.00000E+00  1.89937E-01
      -4    -1     0     0     0   512  0.000000000E+00  0.000000000E+00  4.234913242E+01  4.234913242E+01  0.000000000E+00  0.00000E+00  9.000E+00
      21    -1     0     0   512   513  0.000000000E+00  0.000000000E+00 -8.756093433E+01  8.756093433E+01  0.000000000E+00  0.00000E+00  9.000E+00
      -4     1     1     2     0   515 -3.085963569E+01  2.109052355E+01  1.447934164E+01  4.011269915E+01  1.500000000E+00  0.00000E+00  9.000E+00
      21     1     1     2   515   511  4.211028048E+01 -2.141974797E+01 -2.526115509E+01  5.357431551E+01  1.469710828E-06  0.00000E+00  9.000E+00
      21     1     1     2   511   513 -1.125064480E+01  3.292244204E-01 -3.442998846E+01  3.622305209E+01  0.000000000E+00  0.00000E+00  9.000E+00
</event>
<event>
      5  10001  2.02673E+08  2.85208E+01 -1.00000E+00  1.54545E-01
      21    -1     0     0   514   511  0.000000000E+00  0.000000000E+00  9.656325098E+01  9.656325098E+01  0.000000000E+00  0.00000E+00  9.000E+00
      21    -1     0     0   512   514  0.000000000E+00  0.000000000E+00 -1.424750941E+01  1.424750941E+01  0.000000000E+00  0.00000E+00  9.000E+00
      21     1     1     2   513   511 -8.975294327E+00 -2.155071753E+01  1.919834655E+01  3.022525177E+01  6.743495762E-07  0.00000E+00  9.000E+00
      21     1     1     2   512   515  3.692111718E+00  3.523777274E+01  4.470711800E+01  5.704435745E+01  8.259061849E-07  0.00000E+00  9.000E+00
      21     1     1     2   515   513  5.283182609E+00 -1.368705521E+01  1.841027701E+01  2.354115117E+01  0.000000000E+00  0.00000E+00  9.000E+00
</event>
<event>
      5  10001  2.02673E+08  9.06454E+00 -1.00000E+00  2.00759E-01
      21    -1     0     0   516   512  0.000000000E+00  0.000000000E+00  5.650367852E+01  5.650367852E+01  0.000000000E+00  0.00000E+00  9.000E+00
      21    -1     0     0   511   514  0.000000000E+00  0.000000000E+00 -7.843536452E+01  7.843536452E+01  0.000000000E+00  0.00000E+00  9.000E+00
      21     1     1     2   516   513 -7.404211654E+00 -3.654986829E+01  3.945824276E+01  5.429243174E+01  0.000000000E+00  0.00000E+00  9.000E+00
      21     1     1     2   511   512  6.653357084E+00  2.751648341E+01 -1.253946373E+01  3.096227011E+01  7.348554138E-07  0.00000E+00  9.000E+00
      21     1     1     2   513   514  7.508545703E-01  9.033384875E+00 -4.885046503E+01  4.968434118E+01  6.743495762E-07  0.00000E+00  9.000E+00
</event>
<event>
      5  10001  2.02673E+08  2.34461E+01 -1.00000E+00  1.60828E-01
      21    -1     0     0   515   511  0.000000000E+00  0.000000000E+00  9.686646468E+00  9.686646468E+00  0.000000000E+00  0.00000E+00  9.000E+00
      21    -1     0     0   513   517  0.000000000E+00  0.000000000E+00 -1.575057541E+02  1.575057541E+02  0.000000000E+00  0.00000E+00  9.000E+00
      21     1     1     2   515   517 -1.092428141E+01 -1.963752206E+01 -9.270224931E+01  9.538699714E+01  1.907348633E-06  0.00000E+00  9.000E+00
      21     1     1     2   513   512  1.845759072E+01  2.876616384E+01 -4.031012992E+01  5.284961127E+01  4.768371582E-07  0.00000E+00  9.000E+00
      21     1     1     2   512   511 -7.533309310E+00 -9.128641777E+00 -1.480672836E+01  1.895579211E+01  4.129530925E-07  0.00000E+00  9.000E+00
</event>
<event>
      5  10001  2.02673E+08  1.15983E+01 -1.00000E+00  1.88542E-01
       2    -1     0     0   515     0  0.000000000E+00  0.000000000E+00  1.291317285E+02  1.291317285E+02  0.000000000E+00  0.00000E+00  9.000E+00
      21    -1     0     0   514   515  0.000000000E+00  0.000000000E+00 -1.756497866E+02  1.756497866E+02  0.000000000E+00  0.00000E+00  9.000E+00
      21     1     1     2   513   512 -8.337448577E+00  1.414001646E+01 -6.140856421E+01  6.356465112E+01  6.743495762E-07  0.00000E+00  9.000E+00
       2     1     1     2   512     0  1.981271262E+01 -4.959391409E+01  1.191102415E+02  1.305352765E+02  3.300000131E-01  0.00000E+00  9.000E+00
      21     1     1     2   514   513 -1.147526404E+01  3.545389763E+01 -1.042197354E+02  1.106815874E+02  1.348699152E-06  0.00000E+00  9.000E+00
</event>
<event>
      5  10001  2.02673E+08  2.36165E+01 -1.00000E+00  1.60587E-01
      21    -1     0     0   511   515  0.000000000E+00  0.000000000E+00  3.378402540E+01  3.378402540E+01  0.000000000E+00  0.00000E+00  9.000E+00
      21    -1     0     0   514   513  0.000000000E+00  0.000000000E+00 -3.281040845E+02  3.281040845E+02  0.000000000E+00  0.00000E+00  9.000E+00
      21     1     1     2   511   513 -2.813050655E+01  3.222865305E+01 -2.611598543E+02  2.646402860E+02  0.000000000E+00  0.00000E+00  9.000E+00
      21     1     1     2   514   512  2.284972164E+01 -9.210148409E+00 -5.797433091E+01  6.299174277E+01  2.236564522E-06  0.00000E+00  9.000E+00
      21     1     1     2   512   515  5.280784905E+00 -2.301850464E+01  2.481412607E+01  3.425608118E+01  1.215700987E-06  0.00000E+00  9.000E+00
</event>
<event>
      5  10001  2.02673E+08  2.27321E+01 -1.00000E+00  1.61868E-01
       3    -1     0     0   513     0  0.000000000E+00  0.000000000E+00  2.007963199E+02  2.007963199E+02  0.000000000E+00  0.00000E+00  9.000E+00
      21    -1     0     0   512   511  0.000000000E+00  0.000000000E+00 -2.369222798E+02  2.369222798E+02  0.000000000E+00  0.00000E+00  9.000E+00
      21     1     1     2   513   516  3.876501884E+01 -1.926861987E+01 -8.365425743E+01  9.419151334E+01  1.651812370E-06  0.00000E+00  9.000E+00
       3     1     1     2   512     0 -6.128394452E+01  1.616332491E+01  1.894630168E+02  1.997835321E+02  5.000000000E-01  0.00000E+00  9.000E+00
      21     1     1     2   516   511  2.251892568E+01  3.105294957E+00 -1.419347193E+02  1.437435543E+02  0.000000000E+00  0.00000E+00  9.000E+00
</event>
<event>
      5  10001  2.02673E+08  1.80461E+01 -1.00000E+00  1.70095E-01
      21    -1     0     0   513   512  0.000000000E+00  0.000000000E+00  8.664564213E+01  8.664564213E+01  0.000000000E+00  0.00000E+00  9.000E+00
      21    -1     0     0   514   511  0.000000000E+00  0.000000000E+00 -5.326330254E+01  5.326330254E+01  0.000000000E+00  0.00000E+00  9.000E+00
      -3     1     1     2     0   512 -3.754417608E+01 -1.773574975E+01 -5.160194834E+00  4.184494698E+01  5.000000000E-01  0.00000E+00  9.000E+00
       3     1     1     2   514     0  2.539385015E+01  3.107761114E+01 -1.400094756E+01  4.250814125E+01  5.000000000E-01  0.00000E+00  9.000E+00
      21     1     1     2   513   511  1.215032593E+01 -1.334186138E+01  5.254348199E+01  5.555585644E+01  9.536743164E-07  0.00000E+00  9.000E+00
</event>
<event>
      5  10001  2.02673E+08  1.28907E+01 -1.00000E+00  1.83766E-01
      21    -1     0     0   515   514  0.000000000E+00  0.000000000E+00  1.107350308E+02  1.107350308E+02  0.000000000E+00  0.00000E+00  9.000E+00
       4    -1     0     0   512     0  0.000000000E+00  0.000000000E+00 -1.807832535E+01  1.807832535E+01  0.000000000E+00  0.00000E+00  9.000E+00
      21     1     1     2   512   514  3.202150244E+01  3.662067196E+00  7.815002836E+00  3.316416174E+01  6.474721725E-07  0.00000E+00  9.000E+00
       4     1     1     2   516     0 -3.670274530E+01 -8.171753694E+00  7.095289964E+01  8.031458796E+01  1.500000000E+00  0.00000E+00  9.000E+00
      21     1     1     2   515   516  4.681242858E+00  4.509686498E+00  1.388880297E+01  1.533460645E+01  2.384185791E-07  0.00000E+00  9.000E+00
</event>
<event>
      5  10001  2.02673E+08  3.93170E+00 -1.00000E+00  2.65135E-01
       4    -1     0     0   512     0  0.000000000E+00  0.000000000E+00  1.346712055E+01  1.346712055E+01  0.000000000E+00  0.00000E+00  9.000E+00
      21    -1     0     0   511   513  0.000000000E+00  0.000000000E+00 -1.919155862E+02  1.919155862E+02  0.000000000E+00  0.00000E+00  9.000E+00
       4     1     1     2   511     0  6.428366034E+00  3.308387138E+01 -1.399434607E+01  3.652339192E+01  1.500000000E+00  0.00000E+00  9.000E+00
       4     1     1     2   512     0 -8.330033540E+00 -2.964836456E+01 -1.098920221E+02  1.141355400E+02  1.500000000E+00  0.00000E+00  9.000E+00
      -4     1     1     2     0   513  1.901667506E+00 -3.435506819E+00 -5.456209751E+01  5.472377482E+01  1.500000000E+00  0.00000E+00  9.000E+00
</event>
<event>
      5  10001  2.02673E+08  3.06206E+01 -1.00000E+00  1.52390E-01
       2    -1     0     0   514     0  0.000000000E+00  0.000000000E+00  1.075100158E+02  1.075100158E+02  0.000000000E+00  0.00000E+00  9.000E+00
      21    -1     0     0   511   515  0.000000000E+00  0.000000000E+00 -5.706536730E+01  5.706536730E+01  0.000000000E+00  0.00000E+00  9.000E+00
      21     1     1     2   514   515 -1.380807404E+01  1.507188517E+01 -3.988382944E+01  4.481678795E+01  6.743495762E-07  0.00000E+00  9.000E+00
      21     1     1     2   511   513  1.452063974E+01 -4.568388058E+01  5.761971153E+01  7.495263224E+01  0.000000000E+00  0.00000E+00  9.000E+00
       2     1     1     2   513     0 -7.125657010E-01  3.061199540E+01  3.270876641E+01  4.480596291E+01  3.300000131E-01  0.00000E+00  9.000E+00
</event>
<event>
      5  10001  2.02673E+08  1.00189E+01 -1.00000E+00  1.95604E-01
      21    -1     0     0   512   513  0.000000000E+00  0.000000000E+00  3.123930841E+01  3.123930841E+01  0.000000000E+00  0.00000E+00  9.000E+00
      21    -1     0     0   516   512  0.000000000E+00  0.000000000E+00 -7.227500081E+01  7.227500081E+01  0.000000000E+00  0.00000E+00  9.000E+00
      21     1     1     2   511   513 -3.720532193E+01  1.620320129E+01  4.236339217E+00  4.080105736E+01  6.951036328E-07  0.00000E+00  9.000E+00
      21     1     1     2   516   514  2.463134740E+01 -1.824226987E+01 -3.139990190E+01  4.387980770E+01  4.768371582E-07  0.00000E+00  9.000E+00
      21     1     1     2   514   511  1.257397453E+01  2.039068578E+00 -1.387212972E+01  1.883344416E+01  4.129530925E-07  0.00000E+00  9.000E+00
</event>
<event>
      5  10001  2.02673E+08  4.84690E+00 -1.00000E+00  2.45157E-01
      21    -1     0     0   511   514  0.000000000E+00  0.000000000E+00  4.441483510E+02  4.441483510E+02  0.000000000E+00  0.00000E+00  9.000E+00
      21    -1     0     0   514   512  0.000000000E+00  0.000000000E+00 -2.065836905E+01  2.065836905E+01  0.000000000E+00  0.00000E+00  9.000E+00
      -2     1     1     2     0   512 -4.672525593E+00  4.110371085E+01  2.900836472E+00  4.147133098E+01  3.300000131E-01  0.00000E+00  9.000E+00
       2     1     1     2   513     0  4.366847385E+00 -4.409726606E+01  4.076204058E+02  4.100221242E+02  3.300000131E-01  0.00000E+00  9.000E+00
      21     1     1     2   511   513  3.056782073E-01  2.993555209E+00  1.296873965E+01  1.331326481E+01  1.685873940E-07  0.00000E+00  9.000E+00
</event>
<event>
      5  10001  2.02673E+08  2.00508E+01 -1.00000E+00  1.66237E-01
       1    -1     0     0   512     0  0.000000000E+00  0.000000000E+00  4.657665253E+01  4.657665253E+01  0.000000000E+00  0.00000E+00  9.000E+00
      21    -1     0     0   511   513  0.000000000E+00  0.000000000E+00 -1.539066931E+02  1.539066931E+02  0.000000000E+00  0.00000E+00  9.000E+00
      21     1     1     2   512   513  1.048289084E+01  7.378739041E+01 -6.858181115E+01  1.012814633E+02  1.907348633E-06  0.00000E+00  9.000E+00
       1     1     1     2   514     0 -2.169480963E+01 -7.565962896E+01 -2.795327716E+01  8.352567762E+01  3.300000131E-01  0.00000E+00  9.000E+00
      21     1     1     2   511   514  1.121191879E+01  1.872238544E+00 -1.079495223E+01  1.567620470E+01  2.064765462E-07  0.00000E+00  9.000E+00
</event>
<event>
      5  10001  2.02673E+08  9.67096E+00 -1.00000E+00  1.97393E-01
      21    -1     0     0   511   514  0.000000000E+00  0.000000000E+00  4.392402217E+01  4.392402217E+01  0.000000000E+00  0.00000E+00  9.000E+00
       2    -1     0     0   512     0  0.000000000E+00  0.000000000E+00 -4.634508246E+01  4.634508246E+01  0.000000000E+00  0.00000E+00  9.000E+00
      21     1     1     2   515   514  3.047850916E+01  2.519988467E+01 -1.377474165E+01  4.187740698E+01  1.130918620E-06  0.00000E+00  9.000E+00
       2     1     1     2   511     0 -3.162300949E+01 -1.559703616E+01  1.463667091E+01  3.817883317E+01  3.300000131E-01  0.00000E+00  9.000E+00
      21     1     1     2   512   515  1.144500337E+00 -9.602848514E+00 -3.282989547E+00  1.021286448E+01  1.460009660E-07  0.00000E+00  9.000E+00
</event>
<event>
      5  10001  2.02673E+08  1.27112E+01 -1.00000E+00  1.84385E-01
      21    -1     0     0   513   514  0.000000000E+00  0.000000000E+00  5.230318449E+01  5.230318449E+01  0.000000000E+00  0.00000E+00  9.000E+00
      21    -1     0     0   512   515  0.000000000E+00  0.000000000E+00 -6.390350099E+01  6.390350099E+01  0.000000000E+00  0.00000E+00  9.000E+00
      21     1     1     2   513   515  2.444959691E+01 -2.258454008E+01  3.732030115E+01  5.000649075E+01  0.000000000E+00  0.00000E+00  9.000E+00
      21     1     1     2   511   514 -1.688792277E+01  2.804874516E+01 -4.592698596E+01  5.640232336E+01  1.168007728E-06  0.00000E+00  9.000E+00
      21     1     1     2   512   511 -7.561674138E+00 -5.464205076E+00 -2.993631686E+00  9.797871378E+00  1.264405455E-07  0.00000E+00  9.000E+00
</event>
<event>
      5  10001  2.02673E+08  3.72197E+00 -1.00000E+00  2.70952E-01
      21    -1     0     0   516   511  0.000000000E+00  0.000000000E+00  1.181996477E+01  1.181996477E+01  0.000000000E+00  0.00000E+00  9.000E+00
      21    -1     0     0   512   517  0.000000000E+00  0.000000000E+00 -1.301321131E+02  1.301321131E+02  0.000000000E+00  0.00000E+00  9.000E+00
      21     1     1     2   516   517  2.953247141E+01  1.883104861E+01 -8.897179711E+01  9.561775954E+01  1.348699152E-06  0.00000E+00  9.000E+00
      21     1     1     2   512   513 -2.540741514E+01 -1.614204203E+01 -2.827000378E+01  4.129522222E+01  7.539457465E-07  0.00000E+00  9.000E+00
      21     1     1     2   513   511 -4.125056271E+00 -2.689006582E+00 -1.070347402E+00  5.039096069E+00  1.397852826E-07  0.00000E+00  9.000E+00
</event>
<event>
      5  10001  2.02673E+08  2.65606E+01 -1.00000E+00  1.56769E-01
       2    -1     0     0   515     0  0.000000000E+00  0.000000000E+00  6.184615315E+02  6.184615315E+02  0.000000000E+00  0.00000E+00  9.000E+00
      21    -1     0     0   514   512  0.000000000E+00  0.000000000E+00 -2.138176905E+01  2.138176905E+01  0.000000000E+00  0.00000E+00  9.000E+00
      21     1     1     2   514   513  5.382753756E+01 -5.888195251E+01  9.014927593E+01  1.203801482E+02  4.768371582E-06  0.00000E+00  9.000E+00
       2     1     1     2   513     0 -6.284621343E+01  3.389940183E+01  4.602411840E+02  4.657476488E+02  3.300000131E-01  0.00000E+00  9.000E+00
      21     1     1     2   515   512  9.018675866E+00  2.498255069E+01  4.668930250E+01  5.371550355E+01  9.536743164E-07  0.00000E+00  9.000E+00
</event>
<event>
      5  10001  2.02673E+08  5.03655E+01 -1.00000E+00  1.38867E-01
      21    -1     0     0   511   512  0.000000000E+00  0.000000000E+00  3.677063332E+01  3.677063332E+01  0.000000000E+00  0.00000E+00  9.000E+00
      21    -1     0     0   514   516  0.000000000E+00  0.000000000E+00 -3.007276621E+02  3.007276621E+02  0.000000000E+00  0.00000E+00  9.000E+00
      21     1     1     2   511   516  2.637133538E+01 -5.199097400E+01 -2.363392030E+02  2.434229397E+02  2.697398305E-06  0.00000E+00  9.000E+00
      21     1     1     2   513   512 -4.937015820E+01  2.869032368E+01 -1.552571187E+01  5.917427585E+01  1.105501472E-06  0.00000E+00  9.000E+00
      21     1     1     2   514   513  2.299882282E+01  2.330065032E+01 -1.209211390E+01  3.490107985E+01  4.768371582E-07  0.00000E+00  9.000E+00
</event>
<event>
      5  10001  2.02673E+08  2.49834E+01 -1.00000E+00  1.58735E-01
      21    -1     0     0   515   513  0.000000000E+00  0.000000000E+00  1.633605371E+01  1.633605371E+01  0.000000000E+00  0.00000E+00  9.000E+00
      21    -1     0     0   514   517  0.000000000E+00  0.000000000E+00 -1.255441298E+02  1.255441298E+02  0.000000000E+00  0.00000E+00  9.000E+00
      21     1     1     2   515   517  2.271681855E+01  1.359426655E+01 -9.008643801E+01  9.389581589E+01  9.536743164E-07  0.00000E+00  9.000E+00
      21     1     1     2   514   511 -1.122289962E+01 -1.332957964E+00  9.519339408E+00  1.477660569E+01  5.591411304E-07  0.00000E+00  9.000E+00
      21     1     1     2   511   513 -1.149391893E+01 -1.226130859E+01 -2.864097752E+01  3.320776195E+01  6.743495762E-07  0.00000E+00  9.000E+00
</event>
<event>
      5  10001  2.02673E+08  1.38990E+01 -1.00000E+00  1.80511E-01
      21    -1     0     0   512   513  0.000000000E+00  0.000000000E+00  1.305516241E+02  1.305516241E+02  0.000000000E+00  0.00000E+00  9.000E+00
      -1    -1     0     0     0   512  0.000000000E+00  0.000000000E+00 -7.280617447E+01  7.280617447E+01  0.000000000E+00  0.00000E+00  9.000E+00
      -1     1     1     2     0   511 -2.446983801E+01  6.606063388E+01 -3.980452070E+01  8.091532048E+01  3.300000131E-01  0.00000E+00  9.000E+00
      21     1     1     2   514   513  1.149966484E+01 -5.523963925E+01  6.756049286E+01  8.802318009E+01  0.000000000E+00  0.00000E+00  9.000E+00
      21     1     1     2   511   514  1.297017317E+01 -1.082099462E+01  2.998947750E+01  3.441929804E+01  5.840038640E-07  0.00000E+00  9.000E+00
</event>
<event>
      5  10001  2.02673E+08  1.40148E+01 -1.00000E+00  1.80160E-01
       2    -1     0     0   512     0  0.000000000E+00  0.000000000E+00  1.074403747E+02  1.074403747E+02  0.000000000E+00  0.00000E+00  9.000E+00
      21    -1     0     0   511   512  0.000000000E+00  0.000000000E+00 -7.234307162E+01  7.234307162E+01  0.000000000E+00  0.00000E+00  9.000E+00
      21     1     1     2   511   513  3.189457474E+01 -1.373301425E+01 -5.295224838E+01  6.332298308E+01  1.168007728E-06  0.00000E+00  9.000E+00
       2     1     1     2   515     0 -4.004813211E+01  3.628755581E+00  9.395324975E+01  1.021975674E+02  3.300000131E-01  0.00000E+00  9.000E+00
      21     1     1     2   513   515  8.153557365E+00  1.010425867E+01 -5.903698340E+00  1.426289575E+01  2.920019320E-07  0.00000E+00  9.000E+00
</event>
<event>
      5  10001  2.02673E+08  1.40181E+01 -1.00000E+00  1.80150E-01
      21    -1     0     0   514   513  0.000000000E+00  0.000000000E+00  1.298277292E+02  1.298277292E+02  0.000000000E+00  0.00000E+00  9.000E+00
      21    -1     0     0   516   512  0.000000000E+00  0.000000000E+00 -4.802600559E+01  4.802600559E+01  0.000000000E+00  0.00000E+00  9.000E+00
      21     1     1     2   516   511  5.424337554E+00  4.403069127E+01 -1.702075677E+01  4.751664311E+01  1.118282261E-06  0.00000E+00  9.000E+00
      21     1     1     2   511   513  5.939870332E+00 -3.582327691E+01  1.077590044E+02  1.137127621E+02  2.336015456E-06  0.00000E+00  9.000E+00
      21     1     1     2   514   512 -1.136420789E+01 -8.207414359E+00 -8.936524070E+00  1.662432957E+01  1.685873940E-07  0.00000E+00  9.000E+00
</event>
<event>
      5  10001  2.02673E+08  8.04120E+00 -1.00000E+00  2.07313E-01
       3    -1     0     0   513     0  0.000000000E+00  0.000000000E+00  4.515008191E+02  4.515008191E+02  0.000000000E+00  0.00000E+00  9.000E+00
      21    -1     0     0   514   512  0.000000000E+00  0.000000000E+00 -5.685109775E+00  5.685109775E+00  0.000000000E+00  0.00000E+00  9.000E+00
      21     1     1     2   511   512  2.722570541E+01 -2.560311220E+01  8.295303664E+01  9.098332088E+01  2.523185073E-06  0.00000E+00  9.000E+00
       3     1     1     2   514     0 -2.363445217E+01  3.279758111E+01  3.243116929E+02  3.268219589E+02  5.000000000E-01  0.00000E+00  9.000E+00
      21     1     1     2   513   511 -3.591253247E+00 -7.194468905E+00  3.855097984E+01  3.938064918E+01  4.768371582E-07  0.00000E+00  9.000E+00
</event>
<event>
      5  10001  2.02673E+08  2.61864E+01 -1.00000E+00  1.57220E-01
       1    -1     0     0   515     0  0.000000000E+00  0.000000000E+00  2.131454571E+02  2.131454571E+02  0.000000000E+00  0.00000E+00  9.000E+00
      -2    -1     0     0     0   511  0.000000000E+00  0.000000000E+00 -4.064705673E+01  4.064705673E+01  0.000000000E+00  0.00000E+00  9.000E+00
      -2     1     1     2     0   514  6.899970753E+00  4.072668598E+01 -2.321737196E+01  4.738594526E+01  3.300000131E-01  0.00000E+00  9.000E+00
      21     1     1     2   515   511  1.585609737E+01 -2.776992914E+01  5.807876667E+01  6.630028601E+01  9.536743164E-07  0.00000E+00  9.000E+00
       1     1     1     2   514     0 -2.275606812E+01 -1.295675684E+01  1.376370057E+02  1.401062826E+02  3.300000131E-01  0.00000E+00  9.000E+00
</event>
<event>
      5  10001  2.02673E+08  2.22860E+01 -1.00000E+00  1.62542E-01
       1    -1     0     0   511     0  0.000000000E+00  0.000000000E+00  1.188640007E+01  1.188640007E+01  0.000000000E+00  0.00000E+00  9.000E+00
       2    -1     0     0   512     0  0.000000000E+00  0.000000000E+00 -1.070406127E+02  1.070406127E+02  0.000000000E+00  0.00000E+00  9.000E+00
       1     1     1     2   513     0  2.337096040E+01 -1.014481644E+01 -5.867635405E+01  6.396985630E+01  3.300000131E-01  0.00000E+00  9.000E+00
       2     1     1     2   511     0 -1.416747454E+01  2.093960329E+01 -1.557848122E+01  2.969818678E+01  3.300000131E-01  0.00000E+00  9.000E+00
      21     1     1     2   512   513 -9.203485853E+00 -1.079478685E+01 -2.089937732E+01  2.525896965E+01  3.371747881E-07  0.00000E+00  9.000E+00
</event>
<event>
      5  10001  2.02673E+08  4.88536E+01 -1.00000E+00  1.39624E-01
      21    -1     0     0   514   515  0.000000000E+00  0.000000000E+00  8.490954017E+00  8.490954017E+00  0.000000000E+00  0.00000E+00  9.000E+00
      21    -1     0     0   512   513  0.000000000E+00  0.000000000E+00 -3.186703402E+02  3.186703402E+02  0.000000000E+00  0.00000E+00  9.000E+00
      21     1     1     2   514   513  3.329173958E+01 -2.697455275E+01 -2.117022448E+02  2.159949233E+02  2.697398305E-06  0.00000E+00  9.000E+00
      21     1     1     2   511   515 -8.538233133E+00  9.413951926E+00 -6.393162513E+01  6.518264038E+01  0.000000000E+00  0.00000E+00  9.000E+00
      21     1     1     2   512   511 -2.475350645E+01  1.756060082E+01 -3.454551619E+01  4.598373051E+01  6.743495762E-07  0.00000E+00  9.000E+00
</event>
<event>
      5  10001  2.02673E+08  7.24577E+00 -1.00000E+00  2.13387E-01
      21    -1     0     0   513   511  0.000000000E+00  0.000000000E+00  1.899660838E+02  1.899660838E+02  0.000000000E+00  0.00000E+00  9.000E+00
      21    -1     0     0   512   517  0.000000000E+00  0.000000000E+00 -4.544258686E+01  4.544258686E+01  0.000000000E+00  0.00000E+00  9.000E+00
      21     1     1     2   516   517 -2.786304353E+01 -8.570942563E+00  2.879353738E+01  4.097411434E+01  1.168007728E-06  0.00000E+00  9.000E+00
      21     1     1     2   512   511  3.504231879E+01  7.591527172E+00 -3.107714222E+01  4.744875298E+01  1.261592536E-06  0.00000E+00  9.000E+00
      21     1     1     2   513   516 -7.179275255E+00  9.794153905E-01  1.468071018E+02  1.469858033E+02  2.697398305E-06  0.00000E+00  9.000E+00
</event>
<event>
      5  10001  2.02673E+08  6.73857E+00 -1.00000E+00  2.17844E-01
      21    -1     0     0   514   511  0.000000000E+00  0.000000000E+00  6.036132759E+01  6.036132759E+01  0.000000000E+00  0.00000E+00  9.000E+00
       2    -1     0     0   515     0  0.000000000E+00  0.000000000E+00 -4.249660272E+01  4.249660272E+01  0.000000000E+00  0.00000E+00  9.000E+00
      21     1     1     2   512   511 -3.053749792E+00 -3.583089299E+01  2.780895813E+01  4.545895327E+01  5.840038640E-07  0.00000E+00  9.000E+00
       2     1     1     2   514     0  6.177411967E+00  4.180164987E+01  3.457900280E+00  4.239816417E+01  3.300000131E-01  0.00000E+00  9.000E+00
      21     1     1     2   515   512 -3.123662175E+00 -5.970756880E+00 -1.340213354E+01  1.500081287E+01  1.685873940E-07  0.00000E+00  9.000E+00
</event>
<event>
      5  10001  2.02673E+08  6.30783E+01 -1.00000E+00  1.33526E-01
      21    -1     0     0   513   515  0.000000000E+00  0.000000000E+00  2.590104980E+01  2.590104980E+01  0.000000000E+00  0.00000E+00  9.000E+00
      -4    -1     0     0     0   512  0.000000000E+00  0.000000000E+00 -4.851955371E+01  4.851955371E+01  0.000000000E+00  0.00000E+00  9.000E+00
      21     1     1     2   511   515  1.355612364E+01  7.773637911E+00  2.241621024E+00  1.578679192E+01  2.346637211E-07  0.00000E+00  9.000E+00
      21     1     1     2   513   512  4.656092034E+00  1.951315798E+01 -1.192442556E+01  2.333740458E+01  3.371747881E-07  0.00000E+00  9.000E+00
      -4     1     1     2     0   511 -1.821221567E+01 -2.728679589E+01 -1.293569937E+01  3.529640701E+01  1.500000000E+00  0.00000E+00  9.000E+00
</event>
<event>
      5  10001  2.02673E+08  2.03454E+01 -1.00000E+00  1.65717E-01
      21    -1     0     0   514   511  0.000000000E+00  0.000000000E+00  1.505926844E+01  1.505926844E+01  0.000000000E+00  0.00000E+00  9.000E+00
      21    -1     0     0   516   514  0.000000000E+00  0.000000000E+00 -1.118317455E+02  1.118317455E+02  0.000000000E+00  0.00000E+00  9.000E+00
      21     1     1     2   517   511  2.817165187E+01  1.801711903E+01 -1.706526476E+01  3.754306605E+01  9.233911863E-07  0.00000E+00  9.000E+00
      21     1     1     2   512   517 -2.088221936E+01 -1.262789631E+01 -2.929796017E+01  3.813005797E+01  0.000000000E+00  0.00000E+00  9.000E+00
      21     1     1     2   516   512 -7.289432505E+00 -5.389222714E+00 -5.040925211E+01  5.121788990E+01  0.000000000E+00  0.00000E+00  9.000E+00
</event>
<event>
      5  10001  2.02673E+08  1.64586E+01 -1.00000E+00  1.73624E-01
      21    -1     0     0   513   512  0.000000000E+00  0.000000000E+00  2.077518580E+02  2.077518580E+02  0.000000000E+00  0.00000E+00  9.000E+00
      21    -1     0     0   511   514  0.000000000E+00  0.000000000E+00 -5.296361831E+01  5.296361831E+01  0.000000000E+00  0.00000E+00  9.000E+00
      21     1     1     2   513   515  3.790232491E+01 -4.810282900E+00 -3.697073906E+01  5.316540794E+01  2.132480600E-06  0.00000E+00  9.000E+00
      21     1     1     2   511   512 -4.081545004E+01 -1.138848561E+01  1.849439196E+02  1.897362695E+02  3.814697266E-06  0.00000E+00  9.000E+00
      21     1     1     2   515   514  2.913125131E+00  1.619876851E+01  6.815059191E+00  1.781379890E+01  1.685873940E-07  0.00000E+00  9.000E+00
</event>
<event>
      5  10001  2.02673E+08  1.87272E+01 -1.00000E+00  1.68717E-01
      21    -1     0     0   514   516  0.000000000E+00  0.000000000E+00  4.207945636E+02  4.207945636E+02  0.000000000E+00  0.00000E+00  9.000E+00
      21    -1     0     0   511   514  0.000000000E+00  0.000000000E+00 -4.589888958E+00  4.589888958E+00  0.000000000E+00  0.00000E+00  9.000E+00
      -1     1     1     2     0   512  4.108687322E+01  6.847002002E+00  1.982770066E+02  2.026052636E+02  3.300000131E-01  0.00000E+00  9.000E+00
      21     1     1     2   512   516 -2.263347407E+01 -1.003271972E+01  1.598607391E+02  1.617664536E+02  1.907348633E-06  0.00000E+00  9.000E+00
       1     1     1     2   511     0 -1.845339915E+01  3.185717719E+00  5.806692903E+01  6.101273543E+01  3.300000131E-01  0.00000E+00  9.000E+00
</event>
<event>
      5  10001  2.02673E+08  1.21348E+01 -1.00000E+00  1.86467E-01
      21    -1     0     0   513   512  0.000000000E+00  0.000000000E+00  5.003538246E+01  5.003538246E+01  0.000000000E+00  0.00000E+00  9.000E+00
      21    -1     0     0   511   515  0.000000000E+00  0.000000000E+00 -9.385478960E+01  9.385478960E+01  0.000000000E+00  0.00000E+00  9.000E+00
      21     1     1     2   513   515 -5.717019485E+01 -3.579091174E+01 -1.453053103E+01  6.899678887E+01  1.105501472E-06  0.00000E+00  9.000E+00
      21     1     1     2   511   514  3.294681605E+01  1.996790393E+01 -2.425637952E+01  4.552561721E+01  7.539457465E-07  0.00000E+00  9.000E+00
      21     1     1     2   514   512  2.422337880E+01  1.582300781E+01 -5.032496589E+00  2.936776598E+01  5.527507362E-07  0.00000E+00  9.000E+00
</event>
<event>
      5  10001  2.02673E+08  1.77550E+01 -1.00000E+00  1.70708E-01
      21    -1     0     0   516   511  0.000000000E+00  0.000000000E+00  7.116619944E+01  7.116619944E+01  0.000000000E+00  0.00000E+00  9.000E+00
      21    -1     0     0   517   512  0.000000000E+00  0.000000000E+00 -3.511431718E+01  3.511431718E+01  0.000000000E+00  0.00000E+00  9.000E+00
      21     1     1     2   516   512  2.757803050E+01 -9.623858115E+00  5.168068188E+01  5.936378771E+01  6.743495762E-07  0.00000E+00  9.000E+00
      21     1     1     2   517   513 -3.212096048E+01 -8.375238347E-01 -1.508997661E+01  3.549880199E+01  1.192092896E-06  0.00000E+00  9.000E+00
      21     1     1     2   513   511  4.542929976E+00  1.046138195E+01 -5.388230088E-01  1.141792693E+01  2.998800844E-07  0.00000E+00  9.000E+00
</event>
<event>
      5  10001  2.02673E+08  2.07423E+01 -1.00000E+00  1.65033E-01
      21    -1     0     0   512   511  0.000000000E+00  0.000000000E+00  1.298875202E+02  1.298875202E+02  0.000000000E+00  0.00000E+00  9.000E+00
       2    -1     0     0   514     0  0.000000000E+00  0.000000000E+00 -2.098514223E+02  2.098514223E+02  0.000000000E+00  0.00000E+00  9.000E+00
      21     1     1     2   514   513 -3.724829345E+01  5.694418944E+00 -1.333520971E+02  1.385736034E+02  1.907348633E-06  0.00000E+00  9.000E+00
      21     1     1     2   513   511  4.091325881E+01  1.472149186E+01 -6.652306331E+01  7.947285714E+01  9.536743164E-07  0.00000E+00  9.000E+00
       2     1     1     2   512     0 -3.664965359E+00 -2.041591080E+01  1.199112583E+02  1.216924819E+02  3.300000131E-01  0.00000E+00  9.000E+00
</event>
<event>
      5  10001  2.02673E+08  1.48811E+01 -1.00000E+00  1.77662E-01
      21    -1     0     0   515   511  0.000000000E+00  0.000000000E+00  4.593491228E+01  4.593491228E+01  0.000000000E+00  0.00000E+00  9.000E+00
       1    -1     0     0   512     0  0.000000000E+00  0.000000000E+00 -6.659228917E+01  6.659228917E+01  0.000000000E+00  0.00000E+00  9.000E+00
      21     1     1     2   512   513  9.984356869E-01  4.728892521E-01 -3.944741631E-01  1.173076268E+00  1.393875996E-08  0.00000E+00  9.000E+00
       1     1     1     2   515     0 -5.004110210E+01 -2.276533842E+01 -1.627387335E+01  5.733515838E+01  3.300000131E-01  0.00000E+00  9.000E+00
      21     1     1     2   513   511  4.904266641E+01  2.229244917E+01 -3.989029385E+00  5.401896680E+01  8.709215639E-07  0.00000E+00  9.000E+00
</event>
<event>
      5  10001  2.02673E+08  1.25461E+01 -1.00000E+00  1.84967E-01
      21    -1     0     0   514   512  0.000000000E+00  0.000000000E+00  4.590602607E+02  4.590602607E+02  0.000000000E+00  0.00000E+00  9.000E+00
      21    -1     0     0   515   514  0.000000000E+00  0.000000000E+00 -5.867337634E+01  5.867337634E+01  0.000000000E+00  0.00000E+00  9.000E+00
      21     1     1     2   516   512 -4.465984013E+01 -2.724879783E+01  3.616847114E+02  3.654488046E+02  8.529922400E-06  0.00000E+00  9.000E+00
      21     1     1     2   511   516  3.584162424E+01  3.617317481E+01  8.786041381E+01  1.015508391E+02  2.861022949E-06  0.00000E+00  9.000E+00
      21     1     1     2   515   511  8.818215888E+00 -8.924376974E+00 -4.915824087E+01  5.073399335E+01  6.743495762E-07  0.00000E+00  9.000E+00
</event>
<event>
      5  10001  2.02673E+08  2.19417E+01 -1.00000E+00  1.63076E-01
       2    -1     0     0   512     0  0.000000000E+00  0.000000000E+00  2.458313837E+02  2.458313837E+02  0.000000000E+00  0.00000E+00  9.000E+00
       2    -1     0     0   513     0  0.000000000E+00  0.000000000E+00 -6.081204599E+02  6.081204599E+02  0.000000000E+00  0.00000E+00  9.000E+00
       2     1     1     2   513     0 -3.346618129E+01  3.895215446E+01  1.180136411E+02  1.287034732E+02  3.300000131E-01  0.00000E+00  9.000E+00
       2     1     1     2   514     0  3.643225207E+01 -1.721190485E+01 -6.011128421E+02  6.024618797E+02  3.300000131E-01  0.00000E+00  9.000E+00
      21     1     1     2   512   514 -2.966070774E+00 -2.174024961E+01  1.208101249E+02  1.227864907E+02  1.907348633E-06  0.00000E+00  9.000E+00
</event>
<event>
      5  10001  2.02673E+08  3.80341E+01 -1.00000E+00  1.46179E-01
      -1    -1     0     0     0   511  0.000000000E+00  0.000000000E+00  6.329288428E+00  6.329288428E+00  0.000000000E+00  0.00000E+00  9.000E+00
       2    -1     0     0   513     0  0.000000000E+00  0.000000000E+00 -7.482323591E+02  7.482323591E+02  0.000000000E+00  0.00000E+00  9.000E+00
      -1     1     1     2     0   512 -8.636729913E+00 -2.530352819E+01 -4.489246092E+01  5.225230703E+01  3.300000131E-01  0.00000E+00  9.000E+00
       2     1     1     2   512     0 -2.794486686E+01  3.571171955E+01 -4.645357005E+02  4.667437931E+02  3.300000131E-01  0.00000E+00  9.000E+00
      21     1     1     2   513   511  3.658159677E+01 -1.040819136E+01 -2.324749093E+02  2.355655474E+02  2.697398305E-06  0.00000E+00  9.000E+00
</event>
<event>
      5  10001  2.02673E+08  6.67899E+00 -1.00000E+00  2.18403E-01
      21    -1     0     0   514   512  0.000000000E+00  0.000000000E+00  5.675459283E+01  5.675459283E+01  0.000000000E+00  0.00000E+00  9.000E+00
      21    -1     0     0   511   514  0.000000000E+00  0.000000000E+00 -3.228521762E+01  3.228521762E+01  0.000000000E+00  0.00000E+00  9.000E+00
      21     1     1     2   511   513  3.275921466E+01 -1.077472513E+01 -1.353401973E+01  3.704632960E+01  3.371747881E-07  0.00000E+00  9.000E+00
      21     1     1     2   515   512 -2.187071687E+01  3.017280334E+00  2.252309756E+01  3.153921624E+01  2.384185791E-07  0.00000E+00  9.000E+00
      21     1     1     2   513   515 -1.088849779E+01  7.757444796E+00  1.548029738E+01  2.045426461E+01  0.000000000E+00  0.00000E+00  9.000E+00
</event>
<event>
      5  10001  2.02673E+08  2.71545E+01 -1.00000E+00  1.56071E-01
      21    -1     0     0   516   513  0.000000000E+00  0.000000000E+00  4.652183494E+01  4.652183494E+01  0.000000000E+00  0.00000E+00  9.000E+00
      21    -1     0     0   517   516  0.000000000E+00  0.000000000E+00 -9.217834856E+01  9.217834856E+01  0.000000000E+00  0.00000E+00  9.000E+00
      21     1     1     2   517   511 -3.221650202E+01 -2.680307076E+01 -7.565409991E+01  8.648612859E+01  1.348699152E-06  0.00000E+00  9.000E+00
      21     1     1     2   511   512  4.535708474E+00  2.104245560E+00  9.327113808E-01  5.086300351E+00  8.494968899E-08  0.00000E+00  9.000E+00
      21     1     1     2   512   513  2.768079354E+01  2.469882520E+01  2.906487491E+01  4.712775457E+01  1.011524364E-06  0.00000E+00  9.000E+00
</event>
<event>
      5  10001  2.02673E+08  7.05562E+00 -1.00000E+00  2.14998E-01
       2    -1     0     0   514     0  0.000000000E+00  0.000000000E+00  3.473252361E+01  3.473252361E+01  0.000000000E+00  0.00000E+00  9.000E+00
       5    -1     0     0   511     0  0.000000000E+00  0.000000000E+00 -6.128623405E+01  6.128623405E+01  0.000000000E+00  0.00000E+00  9.000E+00
       2     1     1     2   512     0 -1.930914782E+01  2.590745755E+01  1.633289609E+01  3.620651793E+01  3.300000131E-01  0.00000E+00  9.000E+00
       5     1     1     2   514     0  2.554795215E+01 -2.265951444E+01 -3.344901778E+01  4.804194257E+01  4.800000191E+00  0.00000E+00  9.000E+00
      21     1     1     2   511   512 -6.238804331E+00 -3.247943109E+00 -9.437588759E+00  1.177029717E+01  1.192092896E-07  0.00000E+00  9.000E+00
</event>
<event>
      5  10001  2.02673E+08  5.78356E+00 -1.00000E+00  2.27898E-01
      21    -1     0     0   513   514  0.000000000E+00  0.000000000E+00  1.179694903E+03  1.179694903E+03  0.000000000E+00  0.00000E+00  9.000E+00
      21    -1     0     0   511   513  0.000000000E+00  0.000000000E+00 -1.077914239E+01  1.077914239E+01  0.000000000E+00  0.00000E+00  9.000E+00
      21     1     1     2   511   512  2.158578944E+01 -2.107503766E+01  1.154075557E+01  3.230003958E+01  3.450897891E-06  0.00000E+00  9.000E+00
      21     1     1     2   512   515 -2.606511064E+01  2.473362808E+01  8.714088496E+02  8.721493711E+02  1.868812365E-05  0.00000E+00  9.000E+00
      21     1     1     2   515   514  4.479321204E+00 -3.658590421E+00  2.859661550E+02  2.860246343E+02  0.000000000E+00  0.00000E+00  9.000E+00
</event>
<event>
      5  10001  2.02673E+08  2.03413E+01 -1.00000E+00  1.65724E-01
      -1    -1     0     0     0   514  0.000000000E+00  0.000000000E+00  1.621135495E+02  1.621135495E+02  0.000000000E+00  0.00000E+00  9.000E+00
      -2    -1     0     0     0   512  0.000000000E+00  0.000000000E+00 -2.427461345E+02  2.427461345E+02  0.000000000E+00  0.00000E+00  9.000E+00
      -2     1     1     2     0   514  2.745461285E+01 -2.361986314E+01 -2.383158995E+02  2.410523398E+02  3.300000131E-01  0.00000E+00  9.000E+00
      -1     1     1     2     0   511 -1.116139436E+01  2.560276138E+01  9.658335683E+01  1.005411947E+02  3.300000131E-01  0.00000E+00  9.000E+00
      21     1     1     2   511   512 -1.629321849E+01 -1.982898246E+00  6.109995756E+01  6.326614947E+01  0.000000000E+00  0.00000E+00  9.000E+00
</event>
<event>
      5  10001  2.02673E+08  3.03861E+01 -1.00000E+00  1.52620E-01
       4    -1     0     0   514     0  0.000000000E+00  0.000000000E+00  3.683262098E+01  3.683262098E+01  0.000000000E+00  0.00000E+00  9.000E+00
       2    -1     0     0   513     0  0.000000000E+00  0.000000000E+00 -3.322845882E+02  3.322845882E+02  0.000000000E+00  0.00000E+00  9.000E+00
       2     1     1     2   511     0 -1.539354919E+01  5.057314623E+01 -2.866270601E+02  2.914614640E+02  3.300000131E-01  0.00000E+00  9.000E+00
       4     1     1     2   513     0  3.079632444E+01 -2.438240236E+01  1.167138059E+01  4.100471033E+01  1.500000000E+00  0.00000E+00  9.000E+00
      21     1     1     2   514   511 -1.540277526E+01 -2.619074388E+01 -2.049628770E+01  3.665103491E+01  5.331201500E-07  0.00000E+00  9.000E+00
</event>
<event>
      5  10001  2.02673E+08  2.39234E+01 -1.00000E+00  1.60158E-01
      21    -1     0     0   512   513  0.000000000E+00  0.000000000E+00  6.769910986E+01  6.769910986E+01  0.000000000E+00  0.00000E+00  9.000E+00
       2    -1     0     0   514     0  0.000000000E+00  0.000000000E+00 -3.725665499E+02  3.725665499E+02  0.000000000E+00  0.00000E+00  9.000E+00
      21     1     1     2   514   513 -1.838384993E+01  3.172906884E+01  5.874538420E+01  6.925113654E+01  1.348699152E-06  0.00000E+00  9.000E+00
       2     1     1     2   515     0  3.524199880E+01 -2.596629211E+01 -3.307381996E+02  3.336227097E+02  3.300000131E-01  0.00000E+00  9.000E+00
      21     1     1     2   512   515 -1.685814887E+01 -5.762776732E+00 -3.287462462E+01  3.739181358E+01  4.768371582E-07  0.00000E+00  9.000E+00
</event>
<event>
      5  10001  2.02673E+08  1.16628E+01 -1.00000E+00  1.88285E-01
      21    -1     0     0   513   515  0.000000000E+00  0.000000000E+00  3.404503649E+01  3.404503649E+01  0.000000000E+00  0.00000E+00  9.000E+00
       2    -1     0     0   512     0  0.000000000E+00  0.000000000E+00 -4.365068498E+02  4.365068498E+02  0.000000000E+00  0.00000E+00  9.000E+00
      21     1     1     2   512   515 -2.485516924E+01 -2.002317489E+01 -1.478582187E+02  1.512638748E+02  1.907348633E-06  0.00000E+00  9.000E+00
       2     1     1     2   511     0  1.500010907E+01  2.626000935E+01 -2.850677905E+02  2.866676567E+02  3.300000131E-01  0.00000E+00  9.000E+00
      21     1     1     2   513   511  9.855060176E+00 -6.236834459E+00  3.046419587E+01  3.262035477E+01  7.539457465E-07  0.00000E+00  9.000E+00
</event>
<event>
      5  10001  2.02673E+08  5.05522E+01 -1.00000E+00  1.38775E-01
      21    -1     0     0   514   512  0.000000000E+00  0.000000000E+00  6.465837997E+01  6.465837997E+01  0.000000000E+00  0.00000E+00  9.000E+00
      21    -1     0     0   516   514  0.000000000E+00  0.000000000E+00 -8.049991253E+01  8.049991253E+01  0.000000000E+00  0.00000E+00  9.000E+00
      21     1     1     2   511   512 -4.156774339E+01  4.176076752E+01  2.679688483E+01  6.472952982E+01  9.536743164E-07  0.00000E+00  9.000E+00
      21     1     1     2   515   511  9.460586456E+00 -2.203601879E+01 -6.204735698E-01  2.398903516E+01  4.966805372E-07  0.00000E+00  9.000E+00
      21     1     1     2   516   515  3.210715693E+01 -1.972474873E+01 -4.201794382E+01  5.643972751E+01  0.000000000E+00  0.00000E+00  9.000E+00
</event>
<event>
      5  10001  2.02673E+08  3.72937E+01 -1.00000E+00  1.46720E-01
      -4    -1     0     0     0   513  0.000000000E+00  0.000000000E+00  2.818304846E+01  2.818304846E+01  0.000000000E+00  0.00000E+00  9.000E+00
      21    -1     0     0   513   514  0.000000000E+00  0.000000000E+00 -1.761323737E+02  1.761323737E+02  0.000000000E+00  0.00000E+00  9.000E+00
      -4     1     1     2     0   512  1.558270883E+01 -2.562342332E+01  9.124436253E+00  3.138289302E+01  1.500000000E+00  0.00000E+00  9.000E+00
      21     1     1     2   511   514 -3.930859123E+01  1.603268033E+01 -1.243095415E+02  1.313585714E+02  1.348699152E-06  0.00000E+00  9.000E+00
      21     1     1     2   512   511  2.372588240E+01  9.590742990E+00 -3.276421995E+01  4.157395766E+01  6.743495762E-07  0.00000E+00  9.000E+00
</event>
<event>
      5  10001  2.02673E+08  1.53220E+01 -1.00000E+00  1.76472E-01
       1    -1     0     0   512     0  0.000000000E+00  0.000000000E+00  2.703651626E+02  2.703651626E+02  0.000000000E+00  0.00000E+00  9.000E+00
       2    -1     0     0   511     0  0.000000000E+00  0.000000000E+00 -1.347957179E+02  1.347957179E+02  0.000000000E+00  0.00000E+00  9.000E+00
      21     1     1     2   511   515 -2.896987455E+01 -2.803405454E+01  8.627671122E+01  9.523041921E+01  2.336015456E-06  0.00000E+00  9.000E+00
       1     1     1     2   515     0  2.306466683E+01  1.389573584E+01  1.781455689E+02  1.801694285E+02  3.300000131E-01  0.00000E+00  9.000E+00
       2     1     1     2   512     0  5.905207719E+00  1.413831870E+01 -1.288528355E+02  1.297610329E+02  3.300000131E-01  0.00000E+00  9.000E+00
</event>
<event>
      5  10001  2.02673E+08  2.64604E+01 -1.00000E+00  1.56889E-01
       2    -1     0     0   511     0  0.000000000E+00  0.000000000E+00  3.846793056E+01  3.846793056E+01  0.000000000E+00  0.00000E+00  9.000E+00
       3    -1     0     0   512     0  0.000000000E+00  0.000000000E+00 -2.230368696E+02  2.230368696E+02  0.000000000E+00  0.00000E+00  9.000E+00
       2     1     1     2   513     0  1.965450700E+01  5.187919973E+00  1.808805817E+01  2.721214632E+01  3.300000131E-01  0.00000E+00  9.000E+00
       3     1     1     2   511     0 -4.999140423E+01 -2.012114758E+01 -1.911087549E+02  1.985618475E+02  5.000000000E-01  0.00000E+00  9.000E+00
      21     1     1     2   512   513  3.033689723E+01  1.493322760E+01 -1.154824227E+01  3.573080631E+01  9.386548846E-07  0.00000E+00  9.000E+00
</event>
<event>
      5  10001  2.02673E+08  4.01510E+01 -1.00000E+00  1.44707E-01
      21    -1     0     0   514   515  0.000000000E+00  0.000000000E+00  6.937804795E+00  6.937804795E+00  0.000000000E+00  0.00000E+00  9.000E+00
      21    -1     0     0   512   514  0.000000000E+00  0.000000000E+00 -1.588410775E+02  1.588410775E+02  0.000000000E+00  0.00000E+00  9.000E+00
      21     1     1     2   512   513  2.166566268E+01 -6.308610193E-01 -3.905351540E+01  4.466515409E+01  8.259061849E-07  0.00000E+00  9.000E+00
      21     1     1     2   511   515 -1.207720890E+01 -1.258246715E+01 -1.874668818E+01  2.560499506E+01  6.307962682E-07  0.00000E+00  9.000E+00
      21     1     1     2   513   511 -9.588453783E+00  1.321332817E+01 -9.410306914E+01  9.550873315E+01  1.907348633E-06  0.00000E+00  9.000E+00
</event>
<event>
      5  10001  2.02673E+08  2.61761E+01 -1.00000E+00  1.57233E-01
      21    -1     0     0   512   511  0.000000000E+00  0.000000000E+00  2.525178924E+01  2.525178924E+01  0.000000000E+00  0.00000E+00  9.000E+00
       1    -1     0     0   513     0  0.000000000E+00  0.000000000E+00 -1.214738546E+03  1.214738546E+03  0.000000000E+00  0.00000E+00  9.000E+00
      21     1     1     2   513   511 -4.512400619E+01 -2.244604534E+01 -3.830709516E+01  6.330430022E+01  1.846782373E-06  0.00000E+00  9.000E+00
       1     1     1     2   516     0  4.261976855E+01 -3.610005469E+00 -1.149671059E+03  1.150466484E+03  3.300000131E-01  0.00000E+00  9.000E+00
      21     1     1     2   512   516  2.504237642E+00  2.605605081E+01 -1.508602378E+00  2.621955132E+01  1.086865814E-06  0.00000E+00  9.000E+00
</event>
<event>
      5  10001  2.02673E+08  4.51405E+01 -1.00000E+00  1.41627E-01
      21    -1     0     0   514   511  0.000000000E+00  0.000000000E+00  9.152101189E+02  9.152101189E+02  0.000000000E+00  0.00000E+00  9.000E+00
      21    -1     0     0   515   514  0.000000000E+00  0.000000000E+00 -4.600204717E+01  4.600204717E+01  0.000000000E+00  0.00000E+00  9.000E+00
      21     1     1     2   515   513 -1.802456488E+01  5.220853607E+01 -2.487533781E+01  6.057556115E+01  7.539457465E-07  0.00000E+00  9.000E+00
      21     1     1     2   517   511 -2.615067311E+00 -1.927247680E+01  7.775250459E+02  7.777682585E+02  0.000000000E+00  0.00000E+00  9.000E+00
      21     1     1     2   513   517  2.063963219E+01 -3.293605927E+01  1.165583636E+02  1.228683464E+02  1.907348633E-06  0.00000E+00  9.000E+00
</event>
<event>
      5  10001  2.02673E+08  9.29730E+00 -1.00000E+00  1.99427E-01
       1    -1     0     0   514     0  0.000000000E+00  0.000000000E+00  1.651114369E+01  1.651114369E+01  0.000000000E+00  0.00000E+00  9.000E+00
      21    -1     0     0   513   514  0.000000000E+00  0.000000000E+00 -1.123471912E+02  1.123471912E+02  0.000000000E+00  0.00000E+00  9.000E+00
      21     1     1     2   513   511 -1.746368073E+01  1.824792125E+00 -3.282955548E+01  3.723022595E+01  6.743495762E-07  0.00000E+00  9.000E+00
       1     1     1     2   512     0  3.440716940E+01 -2.994129178E+00 -9.985319561E+00  3.595321436E+01  3.300000131E-01  0.00000E+00  9.000E+00
      21     1     1     2   511   512 -1.694348867E+01  1.169337053E+00 -5.302117247E+01  5.567489459E+01  0.000000000E+00  0.00000E+00  9.000E+00
</event>
<event>
      5  10001  2.02673E+08  4.23182E+01 -1.00000E+00  1.43308E-01
      21    -1     0     0   515   511  0.000000000E+00  0.000000000E+00  1.051977709E+02  1.051977709E+02  0.000000000E+00  0.00000E+00  9.000E+00
      21    -1     0     0   516   515  0.000000000E+00  0.000000000E+00 -1.445104616E+01  1.445104616E+01  0.000000000E+00  0.00000E+00  9.000E+00
      21     1     1     2   516   513 -1.546055662E+00  2.802361153E+01  1.321175417E+01  3.102037298E+01  8.429369702E-07  0.00000E+00  9.000E+00
      21     1     1     2   513   514  1.077708939E+01 -1.166133852E+01  1.056240447E+01  1.907083794E+01  6.078504936E-07  0.00000E+00  9.000E+00
      21     1     1     2   514   511 -9.231033730E+00 -1.636227301E+01  6.697256613E+01  6.955760617E+01  9.536743164E-07  0.00000E+00  9.000E+00
</event>
<event>
      5  10001  2.02673E+08  5.26337E+00 -1.00000E+00  2.34601E-01
      21    -1     0     0   512   514  0.000000000E+00  0.000000000E+00  6.202508505E+01  6.202508505E+01  0.000000000E+00  0.00000E+00  9.000E+00
      21    -1     0     0   511   512  0.000000000E+00  0.000000000E+00 -1.699282027E+01  1.699282027E+01  0.000000000E+00  0.00000E+00  9.000E+00
      21     1     1     2   517   514 -2.915298832E+01  4.786206004E+00  3.540931205E+01  4.611533232E+01  6.743495762E-07  0.00000E+00  9.000E+00
      21     1     1     2   511   513  2.435177276E+01 -8.019457486E+00  8.464283891E+00  2.699934512E+01  6.743495762E-07  0.00000E+00  9.000E+00
      21     1     1     2   513   517  4.801215553E+00  3.233251481E+00  1.158668850E+00  5.903227882E+00  8.940696716E-08  0.00000E+00  9.000E+00
</event>
<event>
      5  10001  2.02673E+08  5.13946E+01 -1.00000E+00  1.38369E-01
      21    -1     0     0   515   511  0.000000000E+00  0.000000000E+00  7.718727973E+00  7.718727973E+00  0.000000000E+00  0.00000E+00  9.000E+00
      21    -1     0     0   514   516  0.000000000E+00  0.000000000E+00 -3.410428391E+02  3.410428391E+02  0.000000000E+00  0.00000E+00  9.000E+00
      21     1     1     2   515   516  1.545070317E+01  2.696372963E+01 -4.097863593E+01  5.142971463E+01  4.768371582E-07  0.00000E+00  9.000E+00
      21     1     1     2   512   511  8.433143692E+00 -2.453431332E+01 -9.316137680E+01  9.670621784E+01  1.907348633E-06  0.00000E+00  9.000E+00
      21     1     1     2   514   512 -2.388384686E+01 -2.429416316E+00 -1.991840984E+02  2.006256346E+02  3.814697266E-06  0.00000E+00  9.000E+00
</event>
<event>
      5  10001  2.02673E+08  3.01670E+01 -1.00000E+00  1.52838E-01
      21    -1     0     0   513   511  0.000000000E+00  0.000000000E+00  3.381968567E+01  3.381968567E+01  0.000000000E+00  0.00000E+00  9.000E+00
      21    -1     0     0   514   513  0.000000000E+00  0.000000000E+00 -7.434132617E+01  7.434132617E+01  0.000000000E+00  0.00000E+00  9.000E+00
      21     1     1     2   512   511  4.305585893E+00  2.853278587E+01  2.069013804E+01  3.550689724E+01  7.539457465E-07  0.00000E+00  9.000E+00
       5     1     1     2   514     0  1.030195192E+01 -1.100054998E+01 -2.496283342E+01  2.955207890E+01  4.800000191E+00  0.00000E+00  9.000E+00
      -5     1     1     2     0   512 -1.460753781E+01 -1.753223589E+01 -3.624894513E+01  4.310203569E+01  4.800000191E+00  0.00000E+00  9.000E+00
</event>
<event>
      5  10001  2.02673E+08  8.58696E+00 -1.00000E+00  2.03666E-01
      21    -1     0     0   513   514  0.000000000E+00  0.000000000E+00  3.545847365E+01  3.545847365E+01  0.000000000E+00  0.00000E+00  9.000E+00
       2    -1     0     0   511     0  0.000000000E+00  0.000000000E+00 -2.302951679E+02  2.302951679E+02  0.000000000E+00  0.00000E+00  9.000E+00
      21     1     1     2   511   514  4.085340022E+01  1.429052411E+01 -1.045714778E+01  4.452607470E+01  1.244581522E-06  0.00000E+00  9.000E+00
       2     1     1     2   515     0 -4.666886370E+01 -7.972630440E+00 -1.988457817E+02  2.044047443E+02  3.300000131E-01  0.00000E+00  9.000E+00
      21     1     1     2   513   515  5.815463481E+00 -6.317893668E+00  1.446623527E+01  1.682282255E+01  4.768371582E-07  0.00000E+00  9.000E+00
</event>
<event>
      5  10001  2.02673E+08  4.96024E+00 -1.00000E+00  2.43143E-01
      21    -1     0     0   514   515  0.000000000E+00  0.000000000E+00  6.504893264E+01  6.504893264E+01  0.000000000E+00  0.00000E+00  9.000E+00
      -4    -1     0     0     0   512  0.000000000E+00  0.000000000E+00 -7.231138455E+01  7.231138455E+01  0.000000000E+00  0.00000E+00  9.000E+00
      -4     1     1     2     0   515  9.121984750E+00  2.978905198E+01 -5.210069386E+01  6.072339355E+01  1.500000000E+00  0.00000E+00  9.000E+00
      21     1     1     2   511   512 -4.163919242E+00 -2.990975068E+01 -1.306476761E+00  3.022645019E+01  6.179941104E-07  0.00000E+00  9.000E+00
      21     1     1     2   514   511 -4.958065508E+00  1.206987021E-01  4.614471870E+01  4.641047345E+01  6.743495762E-07  0.00000E+00  9.000E+00
</event>
<event>
      5  10001  2.02673E+08  1.01384E+01 -1.00000E+00  1.95012E-01
      21    -1     0     0   513   512  0.000000000E+00  0.000000000E+00  3.002491572E+01  3.002491572E+01  0.000000000E+00  0.00000E+00  9.000E+00
       2    -1     0     0   514     0  0.000000000E+00  0.000000000E+00 -1.272680494E+02  1.272680494E+02  0.000000000E+00  0.00000E+00  9.000E+00
      21     1     1     2   514   511 -4.142285160E+01  1.320413795E+01 -7.298193784E+01  8.495036871E+01  1.907348633E-06  0.00000E+00  9.000E+00
       2     1     1     2   513     0  4.361795799E+01 -3.306379260E+00 -3.612819625E+01  5.673459146E+01  3.300000131E-01  0.00000E+00  9.000E+00
      21     1     1     2   511   512 -2.195106391E+00 -9.897758688E+00  1.186700042E+01  1.560800494E+01  2.920019320E-07  0.00000E+00  9.000E+00
</event>
<event>
      5  10001  2.02673E+08  3.24695E+00 -1.00000E+00  2.86689E-01
       2    -1     0     0   514     0  0.000000000E+00  0.000000000E+00  8.403651727E+01  8.403651727E+01  0.000000000E+00  0.00000E+00  9.000E+00
      21    -1     0     0   515   513  0.000000000E+00  0.000000000E+00 -1.674501586E+01  1.674501586E+01  0.000000000E+00  0.00000E+00  9.000E+00
      21     1     1     2   511   513  5.579344746E+00 -2.901306023E+01  7.805918359E+00  3.055845404E+01  2.384185791E-07  0.00000E+00  9.000E+00
       2     1     1     2   515     0 -3.486652820E+00  3.149557626E+01  4.297108438E+01  5.339242516E+01  3.300000131E-01  0.00000E+00  9.000E+00
      21     1     1     2   514   511 -2.092691926E+00 -2.482516027E+00  1.651449866E+01  1.683065392E+01  2.384185791E-07  0.00000E+00  9.000E+00
</event>
<event>
      5  10001  2.02673E+08  8.91854E+00 -1.00000E+00  2.01622E-01
      21    -1     0     0   513   515  0.000000000E+00  0.000000000E+00  4.236956385E+00  4.236956385E+00  0.000000000E+00  0.00000E+00  9.000E+00
       1    -1     0     0   514     0  0.000000000E+00  0.000000000E+00 -6.461715265E+02  6.461715265E+02  0.000000000E+00  0.00000E+00  9.000E+00
      21     1     1     2   514   515  2.074924100E+01  2.988085815E+01 -2.841513521E+02  2.864705702E+02  0.000000000E+00  0.00000E+00  9.000E+00
       1     1     1     2   512     0 -1.677674539E+01 -2.189604147E+01 -3.524882760E+02  3.535661033E+02  3.300000131E-01  0.00000E+00  9.000E+00
      21     1     1     2   513   512 -3.972495612E+00 -7.984816685E+00 -5.294942084E+00  1.037180942E+01  5.364418030E-07  0.00000E+00  9.000E+00
</event>
<event>
      5  10001  2.02673E+08  2.26913E+00 -1.00000E+00  3.39097E-01
      21    -1     0     0   514   512  0.000000000E+00  0.000000000E+00  7.310863525E+00  7.310863525E+00  0.000000000E+00  0.00000E+00  9.000E+00
      21    -1     0     0   515   511  0.000000000E+00  0.000000000E+00 -1.528864156E+02  1.528864156E+02  0.000000000E+00  0.00000E+00  9.000E+00
      -4     1     1     2     0   512  2.011914993E+00 -2.947726060E+01 -6.305084974E+01  6.964636636E+01  1.500000000E+00  0.00000E+00  9.000E+00
      21     1     1     2   514   511 -3.651921451E+00  3.103375676E+01 -5.804738334E+01  6.592366268E+01  6.743495762E-07  0.00000E+00  9.000E+00
       4     1     1     2   515     0  1.640006457E+00 -1.556496158E+00 -2.447731899E+01  2.462725008E+01  1.500000000E+00  0.00000E+00  9.000E+00
</event>
<event>
      5  10001  2.02673E+08  2.28953E+01 -1.00000E+00  1.61626E-01
      21    -1     0     0   513   516  0.000000000E+00  0.000000000E+00  5.254490707E+01  5.254490707E+01  0.000000000E+00  0.00000E+00  9.000E+00
       2    -1     0     0   516     0  0.000000000E+00  0.000000000E+00 -9.202328205E+02  9.202328205E+02  0.000000000E+00  0.00000E+00  9.000E+00
      -3     1     1     2     0   511 -8.522383856E+00 -3.201858305E+01 -2.793910295E+01  4.334355962E+01  5.000000000E-01  0.00000E+00  9.000E+00
       3     1     1     2   513     0 -1.243982975E+01  4.122580208E+01  3.431876843E+01  5.506672305E+01  5.000000000E-01  0.00000E+00  9.000E+00
       2     1     1     2   511     0  2.096221360E+01 -9.207219032E+00 -8.740675789E+02  8.743674449E+02  3.300000131E-01  0.00000E+00  9.000E+00
</event>
<event>
      5  10001  2.02673E+08  2.45230E+01 -1.00000E+00  1.59342E-01
       2    -1     0     0   511     0  0.000000000E+00  0.000000000E+00  3.964406089E+02  3.964406089E+02  0.000000000E+00  0.00000E+00  9.000E+00
      21    -1     0     0   512   513  0.000000000E+00  0.000000000E+00 -8.941854554E+00  8.941854554E+00  0.000000000E+00  0.00000E+00  9.000E+00
      21     1     1     2   511   514  8.704024597E+00  2.318285259E+00  1.169849539E+00  9.083118334E+00  4.964569583E-07  0.00000E+00  9.000E+00
       2     1     1     2   512     0 -2.943214821E+01 -2.279559644E+01  3.366800601E+02  3.387321395E+02  3.300000131E-01  0.00000E+00  9.000E+00
      21     1     1     2   514   513  2.072812361E+01  2.047731118E+01  4.964884473E+01  5.756720564E+01  9.536743164E-07  0.00000E+00  9.000E+00
</event>
<event>
      5  10001  2.02673E+08  1.23694E+01 -1.00000E+00  1.85602E-01
       2    -1     0     0   511     0  0.000000000E+00  0.000000000E+00  2.283679920E+02  2.283679920E+02  0.000000000E+00  0.00000E+00  9.000E+00
      21    -1     0     0   514   511  0.000000000E+00  0.000000000E+00 -2.686069874E+01  2.686069874E+01  0.000000000E+00  0.00000E+00  9.000E+00
      21     1     1     2   514   515  3.194389530E+01 -1.796929600E+01 -8.930520699E+00  3.772349726E+01  1.118282261E-06  0.00000E+00  9.000E+00
       2     1     1     2   512     0 -2.811126427E+01  2.036577522E+01  2.101259505E+02  2.129742519E+02  3.300000131E-01  0.00000E+00  9.000E+00
      21     1     1     2   515   512 -3.832631024E+00 -2.396479220E+00  3.118634587E-01  4.530941628E+00  1.662247741E-07  0.00000E+00  9.000E+00
</event>
<event>
      5  10001  2.02673E+08  9.47680E+00 -1.00000E+00  1.98434E-01
      21    -1     0     0   513   512  0.000000000E+00  0.000000000E+00  7.634984864E+01  7.634984864E+01  0.000000000E+00  0.00000E+00  9.000E+00
      21    -1     0     0   511   516  0.000000000E+00  0.000000000E+00 -4.249684219E+01  4.249684219E+01  0.000000000E+00  0.00000E+00  9.000E+00
      21     1     1     2   513   516  7.539874455E+00  2.964352960E+01  1.284811427E+01  3.317623538E+01  1.250277577E-06  0.00000E+00  9.000E+00
      21     1     1     2   514   512 -1.622726805E+01 -2.585685192E+01  4.809802001E+01  5.696771497E+01  0.000000000E+00  0.00000E+00  9.000E+00
      21     1     1     2   511   514  8.687393596E+00 -3.786677678E+00 -2.709312783E+01  2.870274048E+01  3.371747881E-07  0.00000E+00  9.000E+00
</event>
<event>
      5  10001  2.02673E+08  4.74738E+01 -1.00000E+00  1.40343E-01
      21    -1     0     0   515   514  0.000000000E+00  0.000000000E+00  6.595330627E+01  6.595330627E+01  0.000000000E+00  0.00000E+00  9.000E+00
      21    -1     0     0   511   515  0.000000000E+00  0.000000000E+00 -2.230815188E+02  2.230815188E+02  0.000000000E+00  0.00000E+00  9.000E+00
      21     1     1     2   511   517 -1.127587680E+01 -2.722811881E+01 -2.092479065E+02  2.113130432E+02  2.697398305E-06  0.00000E+00  9.000E+00
      21     1     1     2   512   514 -1.668783186E+00  3.736230231E+01  2.195361654E+01  4.336689694E+01  5.331201500E-07  0.00000E+00  9.000E+00
      21     1     1     2   517   512  1.294465998E+01 -1.013418350E+01  3.016607739E+01  3.435488498E+01  8.259061849E-07  0.00000E+00  9.000E+00
</event>
<event>
      5  10001  2.02673E+08  7.23306E+00 -1.00000E+00  2.13493E-01
      21    -1     0     0   513   511  0.000000000E+00  0.000000000E+00  1.272411267E+02  1.272411267E+02  0.000000000E+00  0.00000E+00  9.000E+00
      21    -1     0     0   516   513  0.000000000E+00  0.000000000E+00 -2.289173897E+01  2.289173897E+01  0.000000000E+00  0.00000E+00  9.000E+00
      21     1     1     2   512   511 -1.103794404E+01  3.587271818E+01  1.032223398E+02  1.098341457E+02  1.348699152E-06  0.00000E+00  9.000E+00
      21     1     1     2   514   512  1.181369900E+01 -3.284833995E+01  5.064473389E+00  3.527358519E+01  1.218619841E-06  0.00000E+00  9.000E+00
      21     1     1     2   516   514 -7.757549592E-01 -3.024378229E+00 -3.937425536E+00  5.025134752E+00  2.763753681E-07  0.00000E+00  9.000E+00
</event>
<event>
      5  10001  2.02673E+08  1.86935E+01 -1.00000E+00  1.68784E-01
      21    -1     0     0   515   514  0.000000000E+00  0.000000000E+00  2.940751909E+02  2.940751909E+02  0.000000000E+00  0.00000E+00  9.000E+00
      21    -1     0     0   512   517  0.000000000E+00  0.000000000E+00 -1.787272021E+01  1.787272021E+01  0.000000000E+00  0.00000E+00  9.000E+00
      21     1     1     2   515   517 -1.480147717E+01 -3.812297128E+01  1.679519964E+02  1.728592426E+02  3.303624740E-06  0.00000E+00  9.000E+00
      21     1     1     2   511   514  1.706606867E+01  1.956714256E+01  1.159869772E+02  1.188574888E+02  1.348699152E-06  0.00000E+00  9.000E+00
      21     1     1     2   512   511 -2.264591505E+00  1.855582872E+01 -7.736502902E+00  2.023117968E+01  2.384185791E-07  0.00000E+00  9.000E+00
</event>
<event>
      5  10001  2.02673E+08  1.47702E+01 -1.00000E+00  1.77970E-01
      21    -1     0     0   513   511  0.000000000E+00  0.000000000E+00  1.526039602E+02  1.526039602E+02  0.000000000E+00  0.00000E+00  9.000E+00
      21    -1     0     0   512   516  0.000000000E+00  0.000000000E+00 -2.126638471E+01  2.126638471E+01  0.000000000E+00  0.00000E+00  9.000E+00
      21     1     1     2   513   516 -2.027520192E+01 -3.246232105E+01  3.108715823E+00  3.839987259E+01  7.324341373E-07  0.00000E+00  9.000E+00
      21     1     1     2   514   511  1.367295990E+01  1.513046315E+01  9.724058480E+01  9.935598664E+01  1.348699152E-06  0.00000E+00  9.000E+00
      21     1     1     2   512   514  6.602242020E+00  1.733185790E+01  3.098827490E+01  3.611448572E+01  5.840038640E-07  0.00000E+00  9.000E+00
</event>
<event>
      5  10001  2.02673E+08  3.70680E+01 -1.00000E+00  1.46889E-01
      21    -1     0     0   515   514  0.000000000E+00  0.000000000E+00  5.688334319E+01  5.688334319E+01  0.000000000E+00  0.00000E+00  9.000E+00
      21    -1     0     0   512   517  0.000000000E+00  0.000000000E+00 -4.710637267E+01  4.710637267E+01  0.000000000E+00  0.00000E+00  9.000E+00
      21     1     1     2   515   517 -1.314480755E+01 -3.938483542E+01 -2.057034814E+01  4.633670737E+01  0.000000000E+00  0.00000E+00  9.000E+00
      21     1     1     2   512   511 -5.873405878E+00  1.700094353E+01  4.533345002E+00  1.854939876E+01  3.209808354E-07  0.00000E+00  9.000E+00
      21     1     1     2   511   514  1.901821343E+01  2.238389189E+01  2.581397366E+01  3.910360974E+01  4.768371582E-07  0.00000E+00  9.000E+00
</event>
<event>
      5  10001  2.02673E+08  5.00253E+01 -1.00000E+00  1.39034E-01
      21    -1     0     0   513   512  0.000000000E+00  0.000000000E+00  4.020021771E+02  4.020021771E+02  0.000000000E+00  0.00000E+00  9.000E+00
      21    -1     0     0   516   514  0.000000000E+00  0.000000000E+00 -2.399888524E+01  2.399888524E+01  0.000000000E+00  0.00000E+00  9.000E+00
      21     1     1     2   513   514 -4.105174241E+01 -3.205942208E+01  3.404294916E+02  3.443911887E+02  3.814697266E-06  0.00000E+00  9.000E+00
      21     1     1     2   516   515  9.124238920E-01  3.108984957E+01  9.166908479E+00  3.242596914E+01  7.725644944E-07  0.00000E+00  9.000E+00
      21     1     1     2   515   512  4.013931851E+01  9.695725046E-01  2.840689178E+01  4.918390450E+01  1.118282261E-06  0.00000E+00  9.000E+00
</event>
<event>
      5  10001  2.02673E+08  1.72597E+01 -1.00000E+00  1.71784E-01
      21    -1     0     0   515   512  0.000000000E+00  0.000000000E+00  1.441375545E+02  1.441375545E+02  0.000000000E+00  0.00000E+00  9.000E+00
      -1    -1     0     0     0   511  0.000000000E+00  0.000000000E+00 -7.194022811E+00  7.194022811E+00  0.000000000E+00  0.00000E+00  9.000E+00
      21     1     1     2   513   512 -2.053271160E+00  1.263703411E+01  2.999520946E+01  3.261323572E+01  5.840038640E-07  0.00000E+00  9.000E+00
      21     1     1     2   515   511 -5.506874695E+00 -2.867929984E+01  8.820065394E+01  9.290954344E+01  9.536743164E-07  0.00000E+00  9.000E+00
      -1     1     1     2     0   513  7.560145855E+00  1.604226573E+01  1.874766826E+01  2.580879812E+01  3.300000131E-01  0.00000E+00  9.000E+00
</event>
<event>
      5  10001  2.02673E+08  3.99902E+01 -1.00000E+00  1.44815E-01
      21    -1     0     0   514   516  0.000000000E+00  0.000000000E+00  5.837664642E+01  5.837664642E+01  0.000000000E+00  0.00000E+00  9.000E+00
      21    -1     0     0   512   513  0.000000000E+00  0.000000000E+00 -2.527159055E+01  2.527159055E+01  0.000000000E+00  0.00000E+00  9.000E+00
      21     1     1     2   514   513  2.072522101E+01 -1.585369698E+01  7.003986770E+00  2.701722274E+01  3.953724850E-07  0.00000E+00  9.000E+00
      21     1     1     2   512   511 -4.295887069E+00  2.465686203E+01  5.888062310E-01  2.503521886E+01  6.320270914E-07  0.00000E+00  9.000E+00
      21     1     1     2   511   516 -1.642933394E+01 -8.803165053E+00  2.551226287E+01  3.159579538E+01  4.768371582E-07  0.00000E+00  9.000E+00
</event>
<event>
      5  10001  2.02673E+08  9.67223E+00 -1.00000E+00  1.97386E-01
      21    -1     0     0   515   512  0.000000000E+00  0.000000000E+00  1.270217897E+02  1.270217897E+02  0.000000000E+00  0.00000E+00  9.000E+00
      21    -1     0     0   516   515  0.000000000E+00  0.000000000E+00 -9.521543661E+00  9.521543661E+00  0.000000000E+00  0.00000E+00  9.000E+00
      21     1     1     2   516   517  1.362452330E+01 -2.632018100E+01  2.502153460E+01  3.878732727E+01  9.536743164E-07  0.00000E+00  9.000E+00
       4     1     1     2   517     0 -6.758819774E+00  1.230792715E+01  6.070405844E+01  6.232495027E+01  1.500000000E+00  0.00000E+00  9.000E+00
      -4     1     1     2     0   512 -6.865703527E+00  1.401225385E+01  3.177465300E+01  3.543105582E+01  1.500000000E+00  0.00000E+00  9.000E+00
</event>
<event>
      5  10001  2.02673E+08  6.38430E+00 -1.00000E+00  2.21289E-01
      21    -1     0     0   513   512  0.000000000E+00  0.000000000E+00  3.494884515E+02  3.494884515E+02  0.000000000E+00  0.00000E+00  9.000E+00
       2    -1     0     0   514     0  0.000000000E+00  0.000000000E+00 -6.977399102E+00  6.977399102E+00  0.000000000E+00  0.00000E+00  9.000E+00
      21     1     1     2   513   511 -2.665981270E+01 -1.849863935E+01  1.883537645E+02  1.911284539E+02  4.672030912E-06  0.00000E+00  9.000E+00
       2     1     1     2   511     0  3.296350023E+01  1.950942858E+01  1.542676010E+02  1.589522311E+02  3.300000131E-01  0.00000E+00  9.000E+00
      21     1     1     2   514   512 -6.303687532E+00 -1.010789228E+00 -1.103131110E-01  6.385165648E+00  9.554116877E-08  0.00000E+00  9.000E+00
</event>
<event>
      5  10001  2.02673E+08  2.99927E+01 -1.00000E+00  1.53012E-01
      21    -1     0     0   515   511  0.000000000E+00  0.000000000E+00  1.615578014E+02  1.615578014E+02  0.000000000E+00  0.00000E+00  9.000E+00
      21    -1     0     0   514   512  0.000000000E+00  0.000000000E+00 -2.809827246E+01  2.809827246E+01  0.000000000E+00  0.00000E+00  9.000E+00
      21     1     1     2   515   512  3.475177879E+01 -1.318918409E+01 -8.154851062E+00  3.805446494E+01  8.172577143E-07  0.00000E+00  9.000E+00
      21     1     1     2   513   511 -8.486335533E+00  1.338301335E+01  1.069095590E+02  1.080776422E+02  1.348699152E-06  0.00000E+00  9.000E+00
      21     1     1     2   514   513 -2.626544325E+01 -1.938292590E-01  3.470482102E+01  4.352396674E+01  4.768371582E-07  0.00000E+00  9.000E+00
</event>
<event>
      5  10001  2.02673E+08  4.08813E+00 -1.00000E+00  2.61153E-01
      21    -1     0     0   514   511  0.000000000E+00  0.000000000E+00  2.565819014E+02  2.565819014E+02  0.000000000E+00  0.00000E+00  9.000E+00
      21    -1     0     0   512   516  0.000000000E+00  0.000000000E+00 -3.161185413E+01  3.161185413E+01  0.000000000E+00  0.00000E+00  9.000E+00
      -2     1     1     2     0   511  1.469357256E+01 -3.078684620E+01 -1.198045751E+01  3.615758891E+01  3.300000131E-01  0.00000E+00  9.000E+00
      21     1     1     2   514   516 -1.804194829E+01  3.313215300E+01  2.423426364E+02  2.452615030E+02  0.000000000E+00  0.00000E+00  9.000E+00
       2     1     1     2   512     0  3.348375730E+00 -2.345306799E+00 -5.392131578E+00  6.774663606E+00  3.300000131E-01  0.00000E+00  9.000E+00
</event>
<event>
      5  10001  2.02673E+08  7.09159E+01 -1.00000E+00  1.30910E-01
      21    -1     0     0   513   516  0.000000000E+00  0.000000000E+00  2.146055371E+01  2.146055371E+01  0.000000000E+00  0.00000E+00  9.000E+00
      21    -1     0     0   512   513  0.000000000E+00  0.000000000E+00 -3.062413879E+02  3.062413879E+02  0.000000000E+00  0.00000E+00  9.000E+00
      21     1     1     2   515   516 -2.898424863E+00 -6.935916807E+01 -1.197209453E+02  1.383914730E+02  1.907348633E-06  0.00000E+00  9.000E+00
      -1     1     1     2     0   515 -1.411380365E+01  2.608774369E+01 -1.232867691E+02  1.268049926E+02  3.300000131E-01  0.00000E+00  9.000E+00
       1     1     1     2   512     0  1.701222851E+01  4.327142438E+01 -4.177311982E+01  6.250547597E+01  3.300000131E-01  0.00000E+00  9.000E+00
</event>
<event>
      5  10001  2.02673E+08  1.15661E+01 -1.00000E+00  1.88671E-01
       2    -1     0     0   512     0  0.000000000E+00  0.000000000E+00  4.779790699E+01  4.779790699E+01  0.000000000E+00  0.00000E+00  9.000E+00
      21    -1     0     0   514   513  0.000000000E+00  0.000000000E+00 -3.176620832E+02  3.176620832E+02  0.000000000E+00  0.00000E+00  9.000E+00
      21     1     1     2   512   513 -3.717360410E+01  6.852115161E+00 -1.416222838E+02  1.465800109E+02  1.907348633E-06  0.00000E+00  9.000E+00
       2     1     1     2   511     0  2.576745015E+01 -4.935359297E+00  4.130776489E+01  4.893628101E+01  3.300000131E-01  0.00000E+00  9.000E+00
      21     1     1     2   514   511  1.140615394E+01 -1.916755864E+00 -1.695496573E+02  1.699436983E+02  3.303624740E-06  0.00000E+00  9.000E+00
</event>
<event>
      5  10001  2.02673E+08  1.15094E+01 -1.00000E+00  1.88900E-01
      21    -1     0     0   515   511  0.000000000E+00  0.000000000E+00  1.097324581E+01  1.097324581E+01  0.000000000E+00  0.00000E+00  9.000E+00
      21    -1     0     0   514   516  0.000000000E+00  0.000000000E+00 -1.277913957E+02  1.277913957E+02  0.000000000E+00  0.00000E+00  9.000E+00
      21     1     1     2   515   516 -9.776850274E+00  2.840393513E+01 -1.983602301E+01  3.599775189E+01  5.331201500E-07  0.00000E+00  9.000E+00
      21     1     1     2   514   512  2.429066229E+00 -1.715227005E+01 -7.522725754E+01  7.719612042E+01  1.348699152E-06  0.00000E+00  9.000E+00
      21     1     1     2   512   511  7.347784045E+00 -1.125166508E+01 -2.175486930E+01  2.557076916E+01  0.000000000E+00  0.00000E+00  9.000E+00
</event>
<event>
      5  10001  2.02673E+08  4.00830E+01 -1.00000E+00  1.44753E-01
      21    -1     0     0   513   514  0.000000000E+00  0.000000000E+00  7.172519657E+01  7.172519657E+01  0.000000000E+00  0.00000E+00  9.000E+00
      21    -1     0     0   517   511  0.000000000E+00  0.000000000E+00 -4.507424792E+01  4.507424792E+01  0.000000000E+00  0.00000E+00  9.000E+00
      21     1     1     2   513   511  2.209398742E+01 -1.461666254E+01  4.343894723E+01  5.087959552E+01  8.259061849E-07  0.00000E+00  9.000E+00
      21     1     1     2   515   514 -1.044073787E+01  9.526887688E-01 -3.724863505E+01  3.869596150E+01  6.743495762E-07  0.00000E+00  9.000E+00
      21     1     1     2   517   515 -1.165324954E+01  1.366397377E+01  2.046063647E+01  2.722388747E+01  3.371747881E-07  0.00000E+00  9.000E+00
</event>
<event>
      5  10001  2.02673E+08  3.05059E+01 -1.00000E+00  1.52502E-01
      21    -1     0     0   512   511  0.000000000E+00  0.000000000E+00  1.921588065E+01  1.921588065E+01  0.000000000E+00  0.00000E+00  9.000E+00
      21    -1     0     0   516   512  0.000000000E+00  0.000000000E+00 -8.176961661E+01  8.176961661E+01  0.000000000E+00  0.00000E+00  9.000E+00
      21     1     1     2   516   517 -2.434318714E+01  1.084793056E+01 -4.978614223E+01  5.647059691E+01  6.743495762E-07  0.00000E+00  9.000E+00
      21     1     1     2   517   513  2.317815143E+01  7.068779192E+00 -1.053125613E+01  2.642161423E+01  6.078504936E-07  0.00000E+00  9.000E+00
      21     1     1     2   513   511  1.165035708E+00 -1.791670975E+01 -2.236337591E+00  1.809328611E+01  2.950279396E-07  0.00000E+00  9.000E+00
</event>
<event>
      5  10001  2.02673E+08  1.09199E+01 -1.00000E+00  1.91385E-01
       2    -1     0     0   514     0  0.000000000E+00  0.000000000E+00  9.879783257E+01  9.879783257E+01  0.000000000E+00  0.00000E+00  9.000E+00
      21    -1     0     0   513   512  0.000000000E+00  0.000000000E+00 -1.605536725E+01  1.605536725E+01  0.000000000E+00  0.00000E+00  9.000E+00
      21     1     1     2   514   515  1.465005933E+01  1.400660200E+01  3.037307574E+00  2.049474018E+01  5.075152625E-07  0.00000E+00  9.000E+00
       2     1     1     2   513     0 -1.493050418E+01 -2.789990451E+01  7.157517769E+01  7.825879879E+01  3.300000131E-01  0.00000E+00  9.000E+00
      21     1     1     2   515   512  2.804448586E-01  1.389330251E+01  8.129980058E+00  1.609966085E+01  1.192092896E-07  0.00000E+00  9.000E+00
</event>
<event>
      5  10001  2.02673E+08  8.76660E+00 -1.00000E+00  2.02544E-01
      21    -1     0     0   513   512  0.000000000E+00  0.000000000E+00  4.439985756E+01  4.439985756E+01  0.000000000E+00  0.00000E+00  9.000E+00
      21    -1     0     0   515   516  0.000000000E+00  0.000000000E+00 -1.504147627E+02  1.504147627E+02  0.000000000E+00  0.00000E+00  9.000E+00
      21     1     1     2   511   516 -3.257191372E+01  3.910074962E+01  2.049835957E+01  5.486329310E+01  2.236564522E-06  0.00000E+00  9.000E+00
      21     1     1     2   515   512  2.394739189E+01 -3.752881933E+01 -1.224447665E+02  1.302866482E+02  3.015782986E-06  0.00000E+00  9.000E+00
      21     1     1     2   513   511  8.624521827E+00 -1.571930299E+00 -4.068498196E+00  9.664678948E+00  0.000000000E+00  0.00000E+00  9.000E+00
</event>
<event>
      5  10001  2.02673E+08  1.49561E+01 -1.00000E+00  1.77456E-01
      21    -1     0     0   514   515  0.000000000E+00  0.000000000E+00  1.514376931E+02  1.514376931E+02  0.000000000E+00  0.00000E+00  9.000E+00
      21    -1     0     0   517   511  0.000000000E+00  0.000000000E+00 -6.407548718E+01  6.407548718E+01  0.000000000E+00  0.00000E+00  9.000E+00
      21     1     1     2   514   511  3.115555393E+01 -1.312146759E+01  1.437255629E+02  1.476478205E+02  1.907348633E-06  0.00000E+00  9.000E+00
       3     1     1     2   517     0 -1.915470866E+01 -8.167765021E-01 -3.243286141E+01  3.767904573E+01  5.000000000E-01  0.00000E+00  9.000E+00
      -3     1     1     2     0   515 -1.200084528E+01  1.393824409E+01 -2.393049562E+01  3.018631406E+01  5.000000000E-01  0.00000E+00  9.000E+00
</event>
<event>
      5  10001  2.02673E+08  1.02913E+01 -1.00000E+00  1.94269E-01
       2    -1     0     0   511     0  0.000000000E+00  0.000000000E+00  4.731795878E+02  4.731795878E+02  0.000000000E+00  0.00000E+00  9.000E+00
      21    -1     0     0   512   514  0.000000000E+00  0.000000000E+00 -8.569956856E+00  8.569956856E+00  0.000000000E+00  0.00000E+00  9.000E+00
      21     1     1     2   511   513 -4.929512260E-01  3.979627822E+01  2.075132857E+02  2.112954105E+02  2.697398305E-06  0.00000E+00  9.000E+00
       2     1     1     2   512     0  4.630229634E+00 -3.037332979E+01  2.582744491E+02  2.600957096E+02  3.300000131E-01  0.00000E+00  9.000E+00
      21     1     1     2   513   514 -4.137278408E+00 -9.422948436E+00 -1.178103888E+00  1.035842452E+01  3.695367803E-07  0.00000E+00  9.000E+00
</event>
<event>
      5  10001  2.02673E+08  1.32625E+01 -1.00000E+00  1.82523E-01
       3    -1     0     0   511     0  0.000000000E+00  0.000000000E+00  1.614208391E+02  1.614208391E+02  0.000000000E+00  0.00000E+00  9.000E+00
       4    -1     0     0   513     0  0.000000000E+00  0.000000000E+00 -4.077391135E+01  4.077391135E+01  0.000000000E+00  0.00000E+00  9.000E+00
       3     1     1     2   512     0 -1.791120261E+01  1.419044598E+01  8.187423179E+01  8.500482202E+01  5.000000000E-01  0.00000E+00  9.000E+00
       4     1     1     2   511     0  4.340363180E+01 -2.144199852E+01 -2.024423941E+01  5.249489292E+01  1.500000000E+00  0.00000E+00  9.000E+00
      21     1     1     2   513   512 -2.549242919E+01  7.251552533E+00  5.901693540E+01  6.469503555E+01  9.536743164E-07  0.00000E+00  9.000E+00
</event>
<event>
      5  10001  2.02673E+08  5.11530E+01 -1.00000E+00  1.38484E-01
      21    -1     0     0   513   514  0.000000000E+00  0.000000000E+00  2.006843402E+02  2.006843402E+02  0.000000000E+00  0.00000E+00  9.000E+00
      -1    -1     0     0     0   512  0.000000000E+00  0.000000000E+00 -3.474519415E+02  3.474519415E+02  0.000000000E+00  0.00000E+00  9.000E+00
      -1     1     1     2     0   511  1.692596431E+01 -1.571153409E+01 -2.530171047E+02  2.540690945E+02  3.300000131E-01  0.00000E+00  9.000E+00
      21     1     1     2   513   512 -6.530349065E+01  4.146364542E+01  1.836223568E+02  1.992509716E+02  4.672030912E-06  0.00000E+00  9.000E+00
      21     1     1     2   511   514  4.837752635E+01 -2.575211133E+01 -7.737285335E+01  9.481621554E+01  0.000000000E+00  0.00000E+00  9.000E+00
</event>
<event>
      5  10001  2.02673E+08  1.86550E+01 -1.00000E+00  1.68860E-01
      21    -1     0     0   515   516  0.000000000E+00  0.000000000E+00  2.906581148E+02  2.906581148E+02  0.000000000E+00  0.00000E+00  9.000E+00
      21    -1     0     0   511   514  0.000000000E+00  0.000000000E+00 -1.013242379E+01  1.013242379E+01  0.000000000E+00  0.00000E+00  9.000E+00
      21     1     1     2   515   514 -4.001371545E+01 -1.023681056E+01  2.330409684E+02  2.366727332E+02  4.672030912E-06  0.00000E+00  9.000E+00
      21     1     1     2   511   512  1.373791148E+01 -2.140573719E+00  1.780735438E+01  2.259234688E+01  6.743495762E-07  0.00000E+00  9.000E+00
      21     1     1     2   512   516  2.627580397E+01  1.237738428E+01  2.967736830E+01  4.152545852E+01  1.118282261E-06  0.00000E+00  9.000E+00
</event>
<event>
      5  10001  2.02673E+08  1.67386E+01 -1.00000E+00  1.72966E-01
      21    -1     0     0   513   514  0.000000000E+00  0.000000000E+00  3.543390038E+01  3.543390038E+01  0.000000000E+00  0.00000E+00  9.000E+00
      21    -1     0     0   516   513  0.000000000E+00  0.000000000E+00 -1.087389664E+02  1.087389664E+02  0.000000000E+00  0.00000E+00  9.000E+00
      21     1     1     2   511   512 -2.308699067E+01  1.520890458E+01 -3.240522847E+00  2.783560498E+01  7.974557972E-07  0.00000E+00  9.000E+00
      21     1     1     2   516   511  3.678965240E+01 -5.595511631E+00 -8.570091510E+01  9.343144611E+01  1.651812370E-06  0.00000E+00  9.000E+00
      21     1     1     2   512   514 -1.370266174E+01 -9.613392946E+00  1.563637196E+01  2.290581565E+01  3.769728732E-07  0.00000E+00  9.000E+00
</event>
<event>
      5  10001  2.02673E+08  2.02484E+01 -1.00000E+00  1.65886E-01
      21    -1     0     0   515   512  0.000000000E+00  0.000000000E+00  2.825306278E+01  2.825306278E+01  0.000000000E+00  0.00000E+00  9.000E+00
      21    -1     0     0   514   515  0.000000000E+00  0.000000000E+00 -2.753742217E+02  2.753742217E+02  0.000000000E+00  0.00000E+00  9.000E+00
      21     1     1     2   514   517  3.371108048E+00  3.355054123E+01 -2.382055734E+02  2.405803367E+02  4.672030912E-06  0.00000E+00  9.000E+00
      21     1     1     2   511   512 -1.525035340E+01 -3.717934167E+01  9.063010852E+00  4.119484059E+01  1.638856779E-06  0.00000E+00  9.000E+00
      21     1     1     2   517   511  1.187924535E+01  3.628800436E+00 -1.797859636E+01  2.185210722E+01  2.384185791E-07  0.00000E+00  9.000E+00
</event>
<event>
      5  10001  2.02673E+08  2.98323E+01 -1.00000E+00  1.53174E-01
      21    -1     0     0   513   511  0.000000000E+00  0.000000000E+00  8.201393610E+01  8.201393610E+01  0.000000000E+00  0.00000E+00  9.000E+00
      21    -1     0     0   514   516  0.000000000E+00  0.000000000E+00 -3.625684599E+01  3.625684599E+01  0.000000000E+00  0.00000E+00  9.000E+00
      21     1     1     2   513   516  2.439812786E+01  1.584227811E+01 -1.563144618E+01  3.302405984E+01  8.920806376E-07  0.00000E+00  9.000E+00
      21     1     1     2   514   512 -3.987211674E+01 -9.887831437E+00  5.173487675E+01  6.606097469E+01  1.348699152E-06  0.00000E+00  9.000E+00
      21     1     1     2   512   511  1.547398888E+01 -5.954446674E+00  9.653659537E+00  1.918574757E+01  3.371747881E-07  0.00000E+00  9.000E+00
</event>
<event>
      5  10001  2.02673E+08  6.58781E+00 -1.00000E+00  2.19273E-01
       2    -1     0     0   514     0  0.000000000E+00  0.000000000E+00  1.716355217E+02  1.716355217E+02  0.000000000E+00  0.00000E+00  9.000E+00
      21    -1     0     0   513   515  0.000000000E+00  0.000000000E+00 -1.271010457E+02  1.271010457E+02  0.000000000E+00  0.00000E+00  9.000E+00
      21     1     1     2   514   515 -2.442169042E+01  2.402226107E+01  1.744875468E+01  3.844407666E+01  1.092571186E-06  0.00000E+00  9.000E+00
       2     1     1     2   512     0  2.953975604E+01 -1.987442060E+01  1.413871776E+02  1.458013466E+02  3.300000131E-01  0.00000E+00  9.000E+00
      21     1     1     2   513   512 -5.118065619E+00 -4.147840466E+00 -1.143014563E+02  1.144911441E+02  0.000000000E+00  0.00000E+00  9.000E+00
</event>
<event>
      5  10001  2.02673E+08  5.34298E+01 -1.00000E+00  1.37423E-01
      21    -1     0     0   512   513  0.000000000E+00  0.000000000E+00  2.706769348E+00  2.706769348E+00  0.000000000E+00  0.00000E+00  9.000E+00
      21    -1     0     0   511   512  0.000000000E+00  0.000000000E+00 -5.229887367E+02  5.229887367E+02  0.000000000E+00  0.00000E+00  9.000E+00
      -2     1     1     2     0   513  4.592411970E+00 -1.086866610E+01 -5.426711643E+01  5.553599712E+01  3.300000131E-01  0.00000E+00  9.000E+00
       2     1     1     2   514     0 -4.271462601E+00  1.572988881E+01 -4.648689775E+02  4.651547591E+02  3.300000131E-01  0.00000E+00  9.000E+00
      21     1     1     2   511   514 -3.209493681E-01 -4.861222708E+00 -1.145873425E+00  5.004749806E+00  5.249355720E-07  0.00000E+00  9.000E+00
</event>
<event>
      5  10001  2.02673E+08  1.10425E+01 -1.00000E+00  1.90851E-01
       1    -1     0     0   512     0  0.000000000E+00  0.000000000E+00  5.583460735E+01  5.583460735E+01  0.000000000E+00  0.00000E+00  9.000E+00
       2    -1     0     0   514     0  0.000000000E+00  0.000000000E+00 -5.423147172E+02  5.423147172E+02  0.000000000E+00  0.00000E+00  9.000E+00
      21     1     1     2   514   515 -4.435692648E+01 -7.655259977E+00 -1.291625970E+02  1.367812721E+02  1.907348633E-06  0.00000E+00  9.000E+00
       1     1     1     2   515     0  3.946561322E+01  1.755535523E+01  4.296990859E+01  6.092821242E+01  3.300000131E-01  0.00000E+00  9.000E+00
       2     1     1     2   512     0  4.891313264E+00 -9.900095256E+00 -4.002874214E+02  4.004398400E+02  3.300000131E-01  0.00000E+00  9.000E+00
</event>
<event>
      5  10001  2.02673E+08  1.79051E+01 -1.00000E+00  1.70390E-01
      21    -1     0     0   511   514  0.000000000E+00  0.000000000E+00  2.017096408E+01  2.017096408E+01  0.000000000E+00  0.00000E+00  9.000E+00
      21    -1     0     0   513   511  0.000000000E+00  0.000000000E+00 -7.819076096E+02  7.819076096E+02  0.000000000E+00  0.00000E+00  9.000E+00
      21     1     1     2   516   514  2.760747130E+01  2.801047967E+01 -5.505619140E-01  3.933271617E+01  1.038574590E-06  0.00000E+00  9.000E+00
      21     1     1     2   515   516 -1.170628516E+01 -3.011508172E+01 -5.527507914E+02  5.536943134E+02  7.629394531E-06  0.00000E+00  9.000E+00
      21     1     1     2   513   515 -1.590118614E+01  2.104602050E+00 -2.084352922E+02  2.090515442E+02  3.814697266E-06  0.00000E+00  9.000E+00
</event>
<event>
      5  10001  2.02673E+08  2.33391E+00 -1.00000E+00  3.34246E-01
       1    -1     0     0   511     0  0.000000000E+00  0.000000000E+00  8.261809059E+02  8.261809059E+02  0.000000000E+00  0.00000E+00  9.000E+00
      21    -1     0     0   514   511  0.000000000E+00  0.000000000E+00 -5.054834526E+00  5.054834526E+00  0.000000000E+00  0.00000E+00  9.000E+00
      21     1     1     2   515   512 -6.480643480E+00  3.241475196E+01  1.120185864E+02  1.167941718E+02  2.697398305E-06  0.00000E+00  9.000E+00
       1     1     1     2   512     0  4.793204932E+00 -3.080242728E+01  7.108472888E+02  7.115305624E+02  3.300000131E-01  0.00000E+00  9.000E+00
      21     1     1     2   514   515  1.687438548E+00 -1.612324682E+00 -1.739803794E+00  2.911006179E+00  2.950279396E-07  0.00000E+00  9.000E+00
</event>
<event>
      5  10001  2.02673E+08  2.87102E+00 -1.00000E+00  3.02637E-01
      21    -1     0     0   513   515  0.000000000E+00  0.000000000E+00  1.666679290E+02  1.666679290E+02  0.000000000E+00  0.00000E+00  9.000E+00
      21    -1     0     0   514   513  0.000000000E+00  0.000000000E+00 -3.029793398E+01  3.029793398E+01  0.000000000E+00  0.00000E+00  9.000E+00
      21     1     1     2   516   515  1.346152617E+01 -2.941782638E+01  1.543463336E+02  1.577003864E+02  1.907348633E-06  0.00000E+00  9.000E+00
      21     1     1     2   511   516 -1.551147703E+01  2.848305341E+01 -1.782256132E+01  3.700721475E+01  4.768371582E-07  0.00000E+00  9.000E+00
      21     1     1     2   514   511  2.049950868E+00  9.347729663E-01 -1.537771976E-01  2.258261828E+00  2.082500586E-08  0.00000E+00  9.000E+00
</event>
<event>
      5  10001  2.02673E+08  1.26504E+01 -1.00000E+00  1.84598E-01
      21    -1     0     0   512   516  0.000000000E+00  0.000000000E+00  3.583925245E+02  3.583925245E+02  0.000000000E+00  0.00000E+00  9.000E+00
      21    -1     0     0   514   513  0.000000000E+00  0.000000000E+00 -2.640722107E+01  2.640722107E+01  0.000000000E+00  0.00000E+00  9.000E+00
      21     1     1     2   511   516  2.346915659E+01 -2.429612467E+01  2.566420275E+02  2.588556225E+02  3.814697266E-06  0.00000E+00  9.000E+00
      21     1     1     2   514   511 -1.187872286E+01  2.936510634E+01  9.634936152E+01  1.014229412E+02  1.348699152E-06  0.00000E+00  9.000E+00
      21     1     1     2   512   513 -1.159043373E+01 -5.068981673E+00 -2.100608564E+01  2.452118193E+01  1.192092896E-06  0.00000E+00  9.000E+00
</event>
<event>
      5  10001  2.02673E+08  4.01760E+01 -1.00000E+00  1.44691E-01
      21    -1     0     0   515   513  0.000000000E+00  0.000000000E+00  2.005567401E+02  2.005567401E+02  0.000000000E+00  0.00000E+00  9.000E+00
      21    -1     0     0   516   517  0.000000000E+00  0.000000000E+00 -1.278909083E+01  1.278909083E+01  0.000000000E+00  0.00000E+00  9.000E+00
      21     1     1     2   515   517  1.337711640E+01  2.842195084E+01  1.422884773E+01  3.448499152E+01  5.057621821E-07  0.00000E+00  9.000E+00
      21     1     1     2   511   513  4.837821480E+00 -1.818528010E+01  4.732127572E+01  5.092555414E+01  6.743495762E-07  0.00000E+00  9.000E+00
      21     1     1     2   516   511 -1.821493788E+01 -1.023667074E+01  1.262175258E+02  1.279352853E+02  1.907348633E-06  0.00000E+00  9.000E+00
</event>
<event>
      5  10001  2.02673E+08  2.62409E+01 -1.00000E+00  1.57154E-01
      21    -1     0     0   512   514  0.000000000E+00  0.000000000E+00  3.483438146E+02  3.483438146E+02  0.000000000E+00  0.00000E+00  9.000E+00
      -4    -1     0     0     0   512  0.000000000E+00  0.000000000E+00 -3.677281521E+01  3.677281521E+01  0.000000000E+00  0.00000E+00  9.000E+00
      -4     1     1     2     0   513 -5.365537311E+01 -1.888666379E+01 -1.056457122E+01  5.787456521E+01  1.500000000E+00  0.00000E+00  9.000E+00
      21     1     1     2   515   514  5.951523199E+00 -7.481363747E-01  3.372266062E+01  3.425198061E+01  4.768371582E-07  0.00000E+00  9.000E+00
      21     1     1     2   513   515  4.770384992E+01  1.963480016E+01  2.884129100E+02  2.929900840E+02  3.814697266E-06  0.00000E+00  9.000E+00
</event>
<event>
      5  10001  2.02673E+08  4.72482E+01 -1.00000E+00  1.40463E-01
      21    -1     0     0   511   515  0.000000000E+00  0.000000000E+00  5.813911145E+00  5.813911145E+00  0.000000000E+00  0.00000E+00  9.000E+00
      21    -1     0     0   513   516  0.000000000E+00  0.000000000E+00 -5.105406503E+02  5.105406503E+02  0.000000000E+00  0.00000E+00  9.000E+00
      21     1     1     2   511   516  3.354388752E+01  3.018263745E+01 -1.994365292E+02  2.044776593E+02  2.697398305E-06  0.00000E+00  9.000E+00
      21     1     1     2   512   515 -2.165051464E+01 -7.877509854E+00 -4.690137428E+01  5.225455822E+01  6.743495762E-07  0.00000E+00  9.000E+00
      21     1     1     2   513   512 -1.189337288E+01 -2.230512760E+01 -2.583888357E+02  2.596223439E+02  0.000000000E+00  0.00000E+00  9.000E+00
</event>
<event>
      5  10001  2.02673E+08  2.68723E+01 -1.00000E+00  1.56400E-01
       1    -1     0     0   511     0  0.000000000E+00  0.000000000E+00  3.449850322E+02  3.449850322E+02  0.000000000E+00  0.00000E+00  9.000E+00
      21    -1     0     0   514   512  0.000000000E+00  0.000000000E+00 -1.955869228E+02  1.955869228E+02  0.000000000E+00  0.00000E+00  9.000E+00
      21     1     1     2   513   512 -5.840979272E+01  5.286007040E-01 -1.760413991E+02  1.854792643E+02  3.814697266E-06  0.00000E+00  9.000E+00
       1     1     1     2   514     0  3.417923367E+01  1.109025224E+01  8.383509337E+00  3.689994360E+01  3.300000131E-01  0.00000E+00  9.000E+00
      21     1     1     2   511   513  2.423055905E+01 -1.161885295E+01  3.170559991E+02  3.181927471E+02  3.814697266E-06  0.00000E+00  9.000E+00
</event>
<event>
      5  10001  2.02673E+08  8.28931E+00 -1.00000E+00  2.05609E-01
      21    -1     0     0   515   512  0.000000000E+00  0.000000000E+00  5.051725998E+01  5.051725998E+01  0.000000000E+00  0.00000E+00  9.000E+00
      21    -1     0     0   514   515  0.000000000E+00  0.000000000E+00 -1.360203528E+02  1.360203528E+02  0.000000000E+00  0.00000E+00  9.000E+00
      21     1     1     2   516   513 -2.386577913E+01  1.817460239E+01 -2.205359892E+01  3.723241613E+01  6.307962682E-07  0.00000E+00  9.000E+00
      21     1     1     2   513   512  3.173545721E+01 -1.557060589E+01  3.544771729E+01  5.006119928E+01  8.259061849E-07  0.00000E+00  9.000E+00
      21     1     1     2   514   516 -7.869678086E+00 -2.603996501E+00 -9.889721115E+01  9.924399732E+01  1.907348633E-06  0.00000E+00  9.000E+00
</event>
<event>
      5  10001  2.02673E+08  5.48735E+01 -1.00000E+00  1.36782E-01
       2    -1     0     0   513     0  0.000000000E+00  0.000000000E+00  2.368057337E+02  2.368057337E+02  0.000000000E+00  0.00000E+00  9.000E+00
      21    -1     0     0   511   515  0.000000000E+00  0.000000000E+00 -4.736273484E+01  4.736273484E+01  0.000000000E+00  0.00000E+00  9.000E+00
      21     1     1     2   513   515  3.589486379E+01 -1.572000410E+01 -2.647360486E+01  4.729071294E+01  6.743495762E-07  0.00000E+00  9.000E+00
      21     1     1     2   511   512 -5.569288147E+01 -1.120259138E+01  1.753234545E+02  1.842973380E+02  1.907348633E-06  0.00000E+00  9.000E+00
       2     1     1     2   512     0  1.979801768E+01  2.692259548E+01  4.059314926E+01  5.258041763E+01  3.300000131E-01  0.00000E+00  9.000E+00
</event>
<event>
      5  10001  2.02673E+08  2.11793E+01 -1.00000E+00  1.64301E-01
       1    -1     0     0   513     0  0.000000000E+00  0.000000000E+00  1.187533446E+02  1.187533446E+02  0.000000000E+00  0.00000E+00  9.000E+00
      21    -1     0     0   514   513  0.000000000E+00  0.000000000E+00 -2.126801704E+01  2.126801704E+01  0.000000000E+00  0.00000E+00  9.000E+00
      21     1     1     2   514   512 -3.122285099E+00  3.702798525E+01  2.453903139E+00  3.724032756E+01  6.995615121E-07  0.00000E+00  9.000E+00
      21     1     1     2   512   511  1.191062047E+00 -1.228368183E+01  1.780754557E+01  2.166601365E+01  2.384185791E-07  0.00000E+00  9.000E+00
       1     1     1     2   511     0  1.931223052E+00 -2.474430342E+01  7.722387882E+01  8.111502040E+01  3.300000131E-01  0.00000E+00  9.000E+00
</event>
<event>
      5  10001  2.02673E+08  1.30649E+01 -1.00000E+00  1.83177E-01
      -5    -1     0     0     0   512  0.000000000E+00  0.000000000E+00  2.736962400E+01  2.736962400E+01  0.000000000E+00  0.00000E+00  9.000E+00
      21    -1     0     0   511   513  0.000000000E+00  0.000000000E+00 -9.380259059E+01  9.380259059E+01  0.000000000E+00  0.00000E+00  9.000E+00
      -5     1     1     2     0   513 -4.721439038E+00  3.535925152E+01 -4.958564742E+01  6.127271078E+01  4.800000191E+00  0.00000E+00  9.000E+00
      21     1     1     2   511   515 -4.941262532E+00 -4.409829906E+01 -1.432509329E+01  4.662922210E+01  7.348554138E-07  0.00000E+00  9.000E+00
      21     1     1     2   515   512  9.662701569E+00  8.739047537E+00 -2.522225880E+00  1.327028172E+01  1.548574097E-07  0.00000E+00  9.000E+00
</event>
<event>
      5  10001  2.02673E+08  4.37811E+01 -1.00000E+00  1.42418E-01
       2    -1     0     0   514     0  0.000000000E+00  0.000000000E+00  5.007929729E+02  5.007929729E+02  0.000000000E+00  0.00000E+00  9.000E+00
       1    -1     0     0   511     0  0.000000000E+00  0.000000000E+00 -1.752480309E+02  1.752480309E+02  0.000000000E+00  0.00000E+00  9.000E+00
       1     1     1     2   514     0 -5.168437772E+01  3.391779290E+01 -1.343254614E+02  1.478686243E+02  3.300000131E-01  0.00000E+00  9.000E+00
       2     1     1     2   512     0  3.361761867E+01 -7.379728039E+01  4.749833385E+02  4.818562687E+02  3.300000131E-01  0.00000E+00  9.000E+00
      21     1     1     2   511   512  1.806675906E+01  3.987948748E+01 -1.511293515E+01  4.631611073E+01  5.591411304E-07  0.00000E+00  9.000E+00
</event>
<event>
      5  10001  2.02673E+08  1.37293E+01 -1.00000E+00  1.81034E-01
       1    -1     0     0   511     0  0.000000000E+00  0.000000000E+00  1.669269617E+02  1.669269617E+02  0.000000000E+00  0.00000E+00  9.000E+00
      21    -1     0     0   513   512  0.000000000E+00  0.000000000E+00 -6.307783206E+00  6.307783206E+00  0.000000000E+00  0.00000E+00  9.000E+00
      21     1     1     2   514   512 -2.216766726E+00 -1.605840094E+01  1.686612116E+01  2.339342511E+01  4.129530925E-07  0.00000E+00  9.000E+00
       1     1     1     2   513     0 -4.810938794E+00  2.788025750E+01  1.038122913E+02  1.075990456E+02  3.300000131E-01  0.00000E+00  9.000E+00
      21     1     1     2   511   514  7.027705520E+00 -1.182185656E+01  3.994076610E+01  4.224227425E+01  4.768371582E-07  0.00000E+00  9.000E+00
</event>
<event>
      5  10001  2.02673E+08  4.26028E+01 -1.00000E+00  1.43132E-01
      21    -1     0     0   515   512  0.000000000E+00  0.000000000E+00  1.498818191E+03  1.498818191E+03  0.000000000E+00  0.00000E+00  9.000E+00
      21    -1     0     0   516   514  0.000000000E+00  0.000000000E+00 -1.586103095E+00  1.586103095E+00  0.000000000E+00  0.00000E+00  9.000E+00
      21     1     1     2   515   514 -3.238788569E+01 -6.345514358E+00  2.600748359E+02  2.621605633E+02  6.607249480E-06  0.00000E+00  9.000E+00
      21     1     1     2   513   512  4.605010617E+00  1.765300526E+01  7.095486324E+02  7.097831334E+02  1.078959322E-05  0.00000E+00  9.000E+00
      21     1     1     2   516   513  2.778287508E+01 -1.130749090E+01  5.276086197E+02  5.284605975E+02  7.629394531E-06  0.00000E+00  9.000E+00
</event>
<event>
      5  10001  2.02673E+08  1.54543E+01 -1.00000E+00  1.76125E-01
       1    -1     0     0   514     0  0.000000000E+00  0.000000000E+00  9.674075536E+01  9.674075536E+01  0.000000000E+00  0.00000E+00  9.000E+00
      21    -1     0     0   511   513  0.000000000E+00  0.000000000E+00 -9.265146947E+01  9.265146947E+01  0.000000000E+00  0.00000E+00  9.000E+00
      21     1     1     2   514   513 -6.395784841E+01  1.926034141E+01 -6.332003753E+01  9.203800453E+01  0.000000000E+00  0.00000E+00  9.000E+00
       1     1     1     2   512     0  3.645528722E+01 -1.010376294E+01  5.263346313E+01  6.481870357E+01  3.300000131E-01  0.00000E+00  9.000E+00
      21     1     1     2   511   512  2.750256120E+01 -9.156578467E+00  1.477586029E+01  3.253551673E+01  0.000000000E+00  0.00000E+00  9.000E+00
</event>
<event>
      5  10001  2.02673E+08  2.38097E+01 -1.00000E+00  1.60316E-01
       1    -1     0     0   511     0  0.000000000E+00  0.000000000E+00  4.830016923E+02  4.830016923E+02  0.000000000E+00  0.00000E+00  9.000E+00
      21    -1     0     0   515   512  0.000000000E+00  0.000000000E+00 -1.439410984E+01  1.439410984E+01  0.000000000E+00  0.00000E+00  9.000E+00
      21     1     1     2   511   513 -2.580911446E+01  3.258912219E+01  3.972834738E+01  5.750219874E+01  1.261592536E-06  0.00000E+00  9.000E+00
       1     1     1     2   515     0  5.220414009E+01 -3.386129692E+01  3.720895669E+02  3.772566956E+02  3.300000131E-01  0.00000E+00  9.000E+00
      21     1     1     2   513   512 -2.639502563E+01  1.272174726E+00  5.678966816E+01  6.263690778E+01  9.536743164E-07  0.00000E+00  9.000E+00
</event>
<event>
      5  10001  2.02673E+08  2.09159E+01 -1.00000E+00  1.64740E-01
      21    -1     0     0   514   513  0.000000000E+00  0.000000000E+00  2.388887839E+01  2.388887839E+01  0.000000000E+00  0.00000E+00  9.000E+00
      21    -1     0     0   516   514  0.000000000E+00  0.000000000E+00 -5.145534555E+01  5.145534555E+01  0.000000000E+00  0.00000E+00  9.000E+00
      21     1     1     2   516   512 -1.034206819E+01 -2.290206030E+01 -2.280871261E+01  3.393670743E+01  4.768371582E-07  0.00000E+00  9.000E+00
      21     1     1     2   512   511  1.628689830E+01  1.604886099E+01  9.293495716E+00  2.468193789E+01  7.907449699E-07  0.00000E+00  9.000E+00
      21     1     1     2   511   513 -5.944830113E+00  6.853199313E+00 -1.405125027E+01  1.672557862E+01  1.685873940E-07  0.00000E+00  9.000E+00
</event>
<event>
      5  10001  2.02673E+08  4.24463E+01 -1.00000E+00  1.43229E-01
      21    -1     0     0   515   511  0.000000000E+00  0.000000000E+00  2.090081388E+01  2.090081388E+01  0.000000000E+00  0.00000E+00  9.000E+00
      21    -1     0     0   513   515  0.000000000E+00  0.000000000E+00 -1.181194121E+02  1.181194121E+02  0.000000000E+00  0.00000E+00  9.000E+00
      21     1     1     2   517   511  1.819366124E+01 -3.403665876E+01 -3.239250173E+01  5.038628402E+01  6.743495762E-07  0.00000E+00  9.000E+00
      21     1     1     2   512   517 -1.077017598E+01  2.366664939E+01 -3.786533985E+00  2.627631678E+01  3.097148194E-07  0.00000E+00  9.000E+00
      21     1     1     2   513   512 -7.423485262E+00  1.037000937E+01 -6.103956253E+01  6.235762521E+01  0.000000000E+00  0.00000E+00  9.000E+00
</event>
<event>
      5  10001  2.02673E+08  8.83885E+00 -1.00000E+00  2.02103E-01
      21    -1     0     0   513   511  0.000000000E+00  0.000000000E+00  2.485451901E+01  2.485451901E+01  0.000000000E+00  0.00000E+00  9.000E+00
      21    -1     0     0   514   512  0.000000000E+00  0.000000000E+00 -1.644906942E+02  1.644906942E+02  0.000000000E+00  0.00000E+00  9.000E+00
      21     1     1     2   513   512  2.805489670E+01 -3.291606463E+01 -1.033039819E+02  1.119922195E+02  2.336015456E-06  0.00000E+00  9.000E+00
       3     1     1     2   514     0 -2.568914342E+01  2.440018064E+01 -4.987072410E+01  6.117712013E+01  5.000000000E-01  0.00000E+00  9.000E+00
      -3     1     1     2     0   511 -2.365753279E+00  8.515883994E+00  1.353853085E+01  1.617587359E+01  5.000000000E-01  0.00000E+00  9.000E+00
</event>
<event>
      5  10001  2.02673E+08  2.40765E+01 -1.00000E+00  1.59947E-01
      -3    -1     0     0     0   511  0.000000000E+00  0.000000000E+00  2.145154232E+01  2.145154232E+01  0.000000000E+00  0.00000E+00  9.000E+00
      21    -1     0     0   513   515  0.000000000E+00  0.000000000E+00 -5.661763978E+01  5.661763978E+01  0.000000000E+00  0.00000E+00  9.000E+00
      -3     1     1     2     0   515 -1.234790702E+01 -2.637862949E+01 -4.186287313E+00  2.942920154E+01  5.000000000E-01  0.00000E+00  9.000E+00
      21     1     1     2   512   511  2.657694117E+00  1.818188493E+01 -3.973308017E+00  1.879977271E+01  3.746093836E-07  0.00000E+00  9.000E+00
      21     1     1     2   513   512  9.690212901E+00  8.196744564E+00 -2.700650213E+01  2.984020786E+01  4.768371582E-07  0.00000E+00  9.000E+00
</event>
<event>
      5  10001  2.02673E+08  5.79210E+01 -1.00000E+00  1.35500E-01
      21    -1     0     0   512   511  0.000000000E+00  0.000000000E+00  1.610282179E+01  1.610282179E+01  0.000000000E+00  0.00000E+00  9.000E+00
       2    -1     0     0   511     0  0.000000000E+00  0.000000000E+00 -6.054049366E+02  6.054049366E+02  0.000000000E+00  0.00000E+00  9.000E+00
      21     1     1     2   512   514  2.978543322E+01 -3.274150907E+01 -6.106513527E+01  7.541968704E+01  1.168007728E-06  0.00000E+00  9.000E+00
       2     1     1     2   513     0 -2.780613367E+01  1.847744725E+01 -5.304661768E+02  5.315158236E+02  3.300000131E-01  0.00000E+00  9.000E+00
      21     1     1     2   514   513 -1.979299552E+00  1.426406182E+01  2.229197183E+00  1.457224782E+01  7.568851172E-07  0.00000E+00  9.000E+00
</event>
<event>
      5  10001  2.02673E+08  2.54937E+01 -1.00000E+00  1.58080E-01
      21    -1     0     0   515   513  0.000000000E+00  0.000000000E+00  3.564359112E+02  3.564359112E+02  0.000000000E+00  0.00000E+00  9.000E+00
      21    -1     0     0   513   512  0.000000000E+00  0.000000000E+00 -1.254768392E+01  1.254768392E+01  0.000000000E+00  0.00000E+00  9.000E+00
      -3     1     1     2     0   512  1.364104655E+01 -4.061477311E+01  3.555347887E+01  5.567708510E+01  5.000000000E-01  0.00000E+00  9.000E+00
       3     1     1     2   511     0 -1.506657342E+00  1.953629466E+01  2.395097881E+02  2.403104771E+02  5.000000000E-01  0.00000E+00  9.000E+00
      21     1     1     2   515   511 -1.213438920E+01  2.107847845E+01  6.882496033E+01  7.299603290E+01  9.536743164E-07  0.00000E+00  9.000E+00
</event>
<event>
      5  10001  2.02673E+08  4.03088E+01 -1.00000E+00  1.44602E-01
      21    -1     0     0   514   511  0.000000000E+00  0.000000000E+00  7.576747841E+01  7.576747841E+01  0.000000000E+00  0.00000E+00  9.000E+00
      21    -1     0     0   513   516  0.000000000E+00  0.000000000E+00 -4.159342331E+01  4.159342331E+01  0.000000000E+00  0.00000E+00  9.000E+00
      21     1     1     2   514   516  3.555687919E+01 -7.922179250E+00 -1.827662196E+00  3.647455183E+01  1.032382731E-07  0.00000E+00  9.000E+00
      21     1     1     2   513   512 -3.907006798E+01  2.810447162E+01  3.648569728E+01  6.039484782E+01  6.743495762E-07  0.00000E+00  9.000E+00
      21     1     1     2   512   511  3.513188794E+00 -2.018229237E+01 -4.839799926E-01  2.049150207E+01  1.704701958E-07  0.00000E+00  9.000E+00
</event>
<event>
      5  10001  2.02673E+08  9.52406E+00 -1.00000E+00  1.98178E-01
      21    -1     0     0   515   512  0.000000000E+00  0.000000000E+00  8.849726215E+01  8.849726215E+01  0.000000000E+00  0.00000E+00  9.000E+00
      21    -1     0     0   514   515  0.000000000E+00  0.000000000E+00 -2.626136899E+01  2.626136899E+01  0.000000000E+00  0.00000E+00  9.000E+00
      21     1     1     2   513   512  1.854649887E+01  2.573078117E+01  6.024787705E+01  6.808709429E+01  6.743495762E-07  0.00000E+00  9.000E+00
      21     1     1     2   511   513 -1.397030774E+01 -3.408339560E+01  3.604219106E+00  3.701131920E+01  5.763494851E-07  0.00000E+00  9.000E+00
      21     1     1     2   514   511 -4.576191129E+00  8.352614427E+00 -1.616202997E+00  9.660217655E+00  1.397852826E-07  0.00000E+00  9.000E+00
</event>
<event>
      5  10001  2.02673E+08  5.72274E+01 -1.00000E+00  1.35783E-01
       4    -1     0     0   514     0  0.000000000E+00  0.000000000E+00  2.509630845E+01  2.509630845E+01  0.000000000E+00  0.00000E+00  9.000E+00
      21    -1     0     0   516   511  0.000000000E+00  0.000000000E+00 -7.254260798E+01  7.254260798E+01  0.000000000E+00  0.00000E+00  9.000E+00
      21     1     1     2   512   511  1.322951414E+01  7.150347008E+00  1.335594654E+01  2.011290170E+01  4.129530925E-07  0.00000E+00  9.000E+00
       4     1     1     2   516     0  7.115258048E+00 -2.134700928E+01 -2.224140254E+01  3.167414860E+01  1.500000000E+00  0.00000E+00  9.000E+00
      21     1     1     2   514   512 -2.034477219E+01  1.419666228E+01 -3.856084353E+01  4.585186615E+01  6.743495762E-07  0.00000E+00  9.000E+00
</event>
<event>
      5  10001  2.02673E+08  1.54736E+01 -1.00000E+00  1.76074E-01
      21    -1     0     0   511   512  0.000000000E+00  0.000000000E+00  8.915639742E+01  8.915639742E+01  0.000000000E+00  0.00000E+00  9.000E+00
       1    -1     0     0   512     0  0.000000000E+00  0.000000000E+00 -8.250686162E+01  8.250686162E+01  0.000000000E+00  0.00000E+00  9.000E+00
      21     1     1     2   515   513 -9.548980115E+00 -2.786569189E+01  7.256936947E+01  7.831981353E+01  1.348699152E-06  0.00000E+00  9.000E+00
       1     1     1     2   513     0 -5.140200408E+00  3.272956341E+01 -6.990992542E+01  7.736376771E+01  3.300000131E-01  0.00000E+00  9.000E+00
      21     1     1     2   511   515  1.468918052E+01 -4.863871515E+00  3.990091744E+00  1.597967780E+01  2.632069846E-07  0.00000E+00  9.000E+00
</event>
<event>
      5  10001  2.02673E+08  5.85340E+01 -1.00000E+00  1.35253E-01
      21    -1     0     0   514   513  0.000000000E+00  0.000000000E+00  3.925715839E+01  3.925715839E+01  0.000000000E+00  0.00000E+00  9.000E+00
      21    -1     0     0   512   515  0.000000000E+00  0.000000000E+00 -2.748611649E+01  2.748611649E+01  0.000000000E+00  0.00000E+00  9.000E+00
      21     1     1     2   514   515  7.517627252E+00  2.000392334E+00  7.939488133E-01  7.819631942E+00  6.525960100E-07  0.00000E+00  9.000E+00
      21     1     1     2   516   513 -3.101920166E+00  5.069803090E+00 -2.309456857E+01  2.384709436E+01  6.743495762E-07  0.00000E+00  9.000E+00
      21     1     1     2   512   516 -4.415707086E+00 -7.070195424E+00  3.407166165E+01  3.507654858E+01  6.743495762E-07  0.00000E+00  9.000E+00
</event>
<event>
      5  10001  2.02673E+08  7.98298E+00 -1.00000E+00  2.07725E-01
      21    -1     0     0   511   512  0.000000000E+00  0.000000000E+00  3.365199367E+00  3.365199367E+00  0.000000000E+00  0.00000E+00  9.000E+00
       2    -1     0     0   513     0  0.000000000E+00  0.000000000E+00 -4.689614462E+02  4.689614462E+02  0.000000000E+00  0.00000E+00  9.000E+00
      21     1     1     2   513   512 -2.764807234E+01  1.616281482E+01 -3.706878536E+02  3.720687265E+02  7.629394531E-06  0.00000E+00  9.000E+00
      21     1     1     2   511   514  6.304944956E+00 -1.983653810E+00 -1.681047472E+01  1.806320220E+01  2.384185791E-07  0.00000E+00  9.000E+00
       2     1     1     2   514     0  2.134312739E+01 -1.417916101E+01 -7.809791856E+01  8.219471684E+01  3.300000131E-01  0.00000E+00  9.000E+00
</event>
<event>
      5  10001  2.02673E+08  3.85896E+01 -1.00000E+00  1.45782E-01
      21    -1     0     0   515   513  0.000000000E+00  0.000000000E+00  1.118876059E+01  1.118876059E+01  0.000000000E+00  0.00000E+00  9.000E+00
      21    -1     0     0   512   516  0.000000000E+00  0.000000000E+00 -1.363817131E+02  1.363817131E+02  0.000000000E+00  0.00000E+00  9.000E+00
      21     1     1     2   515   516 -2.690134564E+00  2.093438866E+01 -1.087594735E+01  2.374387676E+01  6.078504936E-07  0.00000E+00  9.000E+00
      21     1     1     2   511   513 -1.689879542E+01 -9.498568700E+00 -8.253166614E+01  8.477775658E+01  0.000000000E+00  0.00000E+00  9.000E+00
      21     1     1     2   512   511  1.958892999E+01 -1.143581996E+01 -3.178533902E+01  3.904884035E+01  4.768371582E-07  0.00000E+00  9.000E+00
</event>
<event>
      5  10001  2.02673E+08  1.04460E+01 -1.00000E+00  1.93535E-01
      21    -1     0     0   514   511  0.000000000E+00  0.000000000E+00  9.282439553E+01  9.282439553E+01  0.000000000E+00  0.00000E+00  9.000E+00
      21    -1     0     0   512   513  0.000000000E+00  0.000000000E+00 -5.841639815E+02  5.841639815E+02  0.000000000E+00  0.00000E+00  9.000E+00
      21     1     1     2   514   517 -3.614341684E+01 -3.033376446E+01 -1.195533266E+02  1.285281360E+02  1.348699152E-06  0.00000E+00  9.000E+00
      21     1     1     2   512   511  2.814219360E+01  2.361821587E+01  8.445458011E+01  9.209983324E+01  2.523185073E-06  0.00000E+00  9.000E+00
      21     1     1     2   517   513  8.001223232E+00  6.715548592E+00 -4.562408395E+02  4.563604078E+02  5.394796609E-06  0.00000E+00  9.000E+00
</event>
<event>
      5  10001  2.02673E+08  7.60125E+00 -1.00000E+00  2.10549E-01
      21    -1     0     0   515   514  0.000000000E+00  0.000000000E+00  5.303813319E+01  5.303813319E+01  0.000000000E+00  0.00000E+00  9.000E+00
       2    -1     0     0   512     0  0.000000000E+00  0.000000000E+00 -7.359749176E+02  7.359749176E+02  0.000000000E+00  0.00000E+00  9.000E+00
      21     1     1     2   512   511 -4.143540627E+01  2.025814078E+01  3.524190740E+01  5.804547525E+01  3.784777609E-06  0.00000E+00  9.000E+00
       2     1     1     2   515     0  3.548898218E+01 -1.552327243E+01 -7.215949336E+02  7.226339301E+02  3.300000131E-01  0.00000E+00  9.000E+00
      21     1     1     2   511   514  5.946424081E+00 -4.734868347E+00  3.416241808E+00  8.333645403E+00  3.209808354E-07  0.00000E+00  9.000E+00
</event>
<event>
      5  10001  2.02673E+08  2.14888E+01 -1.00000E+00  1.63796E-01
      21    -1     0     0   513   514  0.000000000E+00  0.000000000E+00  1.106830579E+01  1.106830579E+01  0.000000000E+00  0.00000E+00  9.000E+00
       4    -1     0     0   511     0  0.000000000E+00  0.000000000E+00 -1.921223004E+02  1.921223004E+02  0.000000000E+00  0.00000E+00  9.000E+00
      21     1     1     2   511   512 -3.183083701E+01  3.533106395E-01 -2.217117807E+01  3.879288788E+01  9.536743164E-07  0.00000E+00  9.000E+00
       4     1     1     2   513     0  2.678464685E+01 -1.134334499E+01 -1.270339639E+02  1.303302220E+02  1.500000000E+00  0.00000E+00  9.000E+00
      21     1     1     2   512   514  5.046190164E+00  1.099003435E+01 -3.184885258E+01  3.406749626E+01  3.371747881E-07  0.00000E+00  9.000E+00
</event>
<event>
      5  10001  2.02673E+08  1.85587E+01 -1.00000E+00  1.69051E-01
      21    -1     0     0   512   511  0.000000000E+00  0.000000000E+00  6.447956110E+00  6.447956110E+00  0.000000000E+00  0.00000E+00  9.000E+00
       2    -1     0     0   511     0  0.000000000E+00  0.000000000E+00 -7.365618039E+02  7.365618039E+02  0.000000000E+00  0.00000E+00  9.000E+00
      21     1     1     2   512   515 -2.115973701E+01 -3.464415012E+01 -7.307197737E+01  8.359106103E+01  1.348699152E-06  0.00000E+00  9.000E+00
      21     1     1     2   515   513  3.091115535E+01  3.419302020E+01 -5.285129481E+02  5.305191783E+02  0.000000000E+00  0.00000E+00  9.000E+00
       2     1     1     2   513     0 -9.751418341E+00  4.511299176E-01 -1.285289223E+02  1.288995208E+02  3.300000131E-01  0.00000E+00  9.000E+00
</event>
<event>
      5  10001  2.02673E+08  1.52301E+01 -1.00000E+00  1.76716E-01
      21    -1     0     0   514   515  0.000000000E+00  0.000000000E+00  2.383085645E+02  2.383085645E+02  0.000000000E+00  0.00000E+00  9.000E+00
      21    -1     0     0   512   514  0.000000000E+00  0.000000000E+00 -3.209395005E+02  3.209395005E+02  0.000000000E+00  0.00000E+00  9.000E+00
      21     1     1     2   511   516  6.178891991E+00  4.700951860E+01 -2.769298454E+02  2.809594505E+02  0.000000000E+00  0.00000E+00  9.000E+00
      21     1     1     2   516   515 -7.557521489E+00 -3.184190948E+01  2.337343693E+02  2.360143613E+02  6.031565972E-06  0.00000E+00  9.000E+00
      21     1     1     2   512   511  1.378629498E+00 -1.516760913E+01 -3.943545999E+01  4.227425328E+01  4.768371582E-07  0.00000E+00  9.000E+00
</event>
<event>
      5  10001  2.02673E+08  1.60003E+01 -1.00000E+00  1.74736E-01
      21    -1     0     0   513   511  0.000000000E+00  0.000000000E+00  2.362156842E+02  2.362156842E+02  0.000000000E+00  0.00000E+00  9.000E+00
      21    -1     0     0   512   513  0.000000000E+00  0.000000000E+00 -1.889502671E+01  1.889502671E+01  0.000000000E+00  0.00000E+00  9.000E+00
      21     1     1     2   517   511 -3.751313118E+01 -3.034985381E+01  1.924695014E+02  1.984259500E+02  3.814697266E-06  0.00000E+00  9.000E+00
      -3     1     1     2     0   517  2.581945833E+01  1.225863158E+01  1.911099052E+01  3.438602093E+01  5.000000000E-01  0.00000E+00  9.000E+00
       3     1     1     2   512     0  1.169367285E+01  1.809122223E+01  5.740165542E+00  2.229874003E+01  5.000000000E-01  0.00000E+00  9.000E+00
</event>
<event>
      5  10001  2.02673E+08  1.18128E+01 -1.00000E+00  1.87695E-01
       1    -1     0     0   514     0  0.000000000E+00  0.000000000E+00  1.600974075E+02  1.600974075E+02  0.000000000E+00  0.00000E+00  9.000E+00
      21    -1     0     0   511   515  0.000000000E+00  0.000000000E+00 -2.890265306E+01  2.890265306E+01  0.000000000E+00  0.00000E+00  9.000E+00
      21     1     1     2   514   515  2.491133277E+01  7.527779677E+00 -9.010279054E+00  2.753955512E+01  9.156639275E-07  0.00000E+00  9.000E+00
      21     1     1     2   511   512 -3.213379985E+01 -1.687535654E+01  2.153444548E+01  4.220297494E+01  4.129530925E-07  0.00000E+00  9.000E+00
       1     1     1     2   512     0  7.222467082E+00  9.347576861E+00  1.186705880E+02  1.192575305E+02  3.300000131E-01  0.00000E+00  9.000E+00
</event>
<event>
      5  10001  2.02673E+08  2.43164E+01 -1.00000E+00  1.59620E-01
      21    -1     0     0   513   516  0.000000000E+00  0.000000000E+00  1.354820454E+02  1.354820454E+02  0.000000000E+00  0.00000E+00  9.000E+00
      -1    -1     0     0     0   513  0.000000000E+00  0.000000000E+00 -5.727767456E+01  5.727767456E+01  0.000000000E+00  0.00000E+00  9.000E+00
      -1     1     1     2     0   511  1.792553166E+01 -4.574204980E+01 -2.647643807E+01  5.581012881E+01  3.300000131E-01  0.00000E+00  9.000E+00
      21     1     1     2   512   516 -9.911280010E+00  3.873267433E+01  1.152254832E+02  1.219646077E+02  1.348699152E-06  0.00000E+00  9.000E+00
      21     1     1     2   511   512 -8.014251649E+00  7.009375475E+00 -1.054467432E+01  1.498498350E+01  1.685873940E-07  0.00000E+00  9.000E+00
</event>
<event>
      5  10001  2.02673E+08  8.93206E+00 -1.00000E+00  2.01541E-01
       2    -1     0     0   514     0  0.000000000E+00  0.000000000E+00  8.312410524E+02  8.312410524E+02  0.000000000E+00  0.00000E+00  9.000E+00
      21    -1     0     0   511   515  0.000000000E+00  0.000000000E+00 -7.855679977E+01  7.855679977E+01  0.000000000E+00  0.00000E+00  9.000E+00
      21     1     1     2   514   515 -1.706057716E+01 -3.962059827E+01 -5.916342998E+01  7.321998735E+01  9.536743164E-07  0.00000E+00  9.000E+00
      21     1     1     2   511   512  1.465952261E+01  3.101730536E+01  1.150430789E+01  3.618458145E+01  7.725644944E-07  0.00000E+00  9.000E+00
       2     1     1     2   512     0  2.401054553E+00  8.603292911E+00  8.003433747E+02  8.003932834E+02  3.300000131E-01  0.00000E+00  9.000E+00
</event>
<event>
      5  10001  2.02673E+08  2.33804E+01 -1.00000E+00  1.60922E-01
      21    -1     0     0   513   511  0.000000000E+00  0.000000000E+00  3.791846240E+01  3.791846240E+01  0.000000000E+00  0.00000E+00  9.000E+00
      21    -1     0     0   517   516  0.000000000E+00  0.000000000E+00 -2.449994107E+02  2.449994107E+02  0.000000000E+00  0.00000E+00  9.000E+00
      21     1     1     2   513   516  3.014517631E+01 -4.165387892E+00 -2.167962755E+02  2.189216919E+02  2.697398305E-06  0.00000E+00  9.000E+00
      21     1     1     2   517   514 -1.793182615E+01  1.374684114E+01  3.056036157E+01  3.800607491E+01  1.011524364E-06  0.00000E+00  9.000E+00
      21     1     1     2   514   511 -1.221335016E+01 -9.581453249E+00 -2.084503442E+01  2.599010636E+01  2.384185791E-07  0.00000E+00  9.000E+00
</event>
<event>
      5  10001  2.02673E+08  4.37253E+00 -1.00000E+00  2.54578E-01
      21    -1     0     0   514   511  0.000000000E+00  0.000000000E+00  3.857229675E+01  3.857229675E+01  0.000000000E+00  0.00000E+00  9.000E+00
      -1    -1     0     0     0   512  0.000000000E+00  0.000000000E+00 -1.671634095E+02  1.671634095E+02  0.000000000E+00  0.00000E+00  9.000E+00
      -1     1     1     2     0   513 -1.926179695E+01  2.485412943E+01 -8.820745303E+01  9.364511862E+01  3.300000131E-01  0.00000E+00  9.000E+00
      21     1     1     2   514   512  2.811141938E+01 -3.881843094E+01  1.816305391E+01  5.125445354E+01  3.371747881E-07  0.00000E+00  9.000E+00
      21     1     1     2   513   511 -8.849622427E+00  1.396430151E+01 -5.854671361E+01  6.083613407E+01  6.743495762E-07  0.00000E+00  9.000E+00
</event>
<event>
      5  10001  2.02673E+08  3.27221E+01 -1.00000E+00  1.50431E-01
       4    -1     0     0   512     0  0.000000000E+00  0.000000000E+00  2.196538092E+01  2.196538092E+01  0.000000000E+00  0.00000E+00  9.000E+00
      -5    -1     0     0     0   512  0.000000000E+00  0.000000000E+00 -2.078611020E+02  2.078611020E+02  0.000000000E+00  0.00000E+00  9.000E+00
      -5     1     1     2     0   514  1.508105725E+01  2.459942132E+01 -8.722103742E+01  9.199521285E+01  4.800000191E+00  0.00000E+00  9.000E+00
       4     1     1     2   511     0 -4.924422281E+00 -5.830991595E+01 -4.588119847E+01  7.437493264E+01  1.500000000E+00  0.00000E+00  9.000E+00
      21     1     1     2   514   511 -1.015663497E+01  3.371049463E+01 -5.279348524E+01  6.345633747E+01  9.536743164E-07  0.00000E+00  9.000E+00
</event>
<event>
      5  10001  2.02673E+08  3.14314E+01 -1.00000E+00  1.51613E-01
       1    -1     0     0   512     0  0.000000000E+00  0.000000000E+00  7.993642389E+01  7.993642389E+01  0.000000000E+00  0.00000E+00  9.000E+00
      21    -1     0     0   513   511  0.000000000E+00  0.000000000E+00 -1.681915398E+02  1.681915398E+02  0.000000000E+00  0.00000E+00  9.000E+00
      21     1     1     2   515   511  2.668924774E+01 -9.847289256E+00 -1.321613340E+02  1.351883991E+02  1.907348633E-06  0.00000E+00  9.000E+00
       1     1     1     2   513     0 -3.936060241E+01  3.493399631E+01  6.059015238E+01  8.025532123E+01  3.300000131E-01  0.00000E+00  9.000E+00
      21     1     1     2   512   515  1.267135467E+01 -2.508670705E+01 -1.668393431E+01  3.268424336E+01  6.307962682E-07  0.00000E+00  9.000E+00
</event>
<event>
      5  10001  2.02673E+08  5.79502E+00 -1.00000E+00  2.27762E-01
      21    -1     0     0   514   515  0.000000000E+00  0.000000000E+00  2.005816477E+02  2.005816477E+02  0.000000000E+00  0.00000E+00  9.000E+00
      21    -1     0     0   511   514  0.000000000E+00  0.000000000E+00 -6.045788845E+01  6.045788845E+01  0.000000000E+00  0.00000E+00  9.000E+00
      21     1     1     2   513   515  2.471728577E+01 -1.567014321E+01  1.623580379E+02  1.649746346E+02  1.907348633E-06  0.00000E+00  9.000E+00
      21     1     1     2   516   513 -2.343658859E+01  2.132187362E+01  2.992652650E+01  4.358317299E+01  8.920806376E-07  0.00000E+00  9.000E+00
      21     1     1     2   511   516 -1.280697182E+00 -5.651730409E+00 -5.216080511E+01  5.248172855E+01  1.168007728E-06  0.00000E+00  9.000E+00
</event>
<event>
      5  10001  2.02673E+08  1.96988E+01 -1.00000E+00  1.66873E-01
       2    -1     0     0   511     0  0.000000000E+00  0.000000000E+00  5.774860031E+01  5.774860031E+01  0.000000000E+00  0.00000E+00  9.000E+00
      21    -1     0     0   512   514  0.000000000E+00  0.000000000E+00 -1.990579940E+01  1.990579940E+01  0.000000000E+00  0.00000E+00  9.000E+00
      21     1     1     2   513   514  1.379035771E+01 -1.581322253E+01 -2.979628196E+00  2.119221925E+01  1.884864366E-07  0.00000E+00  9.000E+00
       2     1     1     2   512     0 -6.318044424E+00  2.578047714E+01  2.741104350E+01  3.815789424E+01  3.300000131E-01  0.00000E+00  9.000E+00
      21     1     1     2   511   513 -7.472313285E+00 -9.967254610E+00  1.341138560E+01  1.830428622E+01  1.685873940E-07  0.00000E+00  9.000E+00
</event>
<event>
      5  10001  2.02673E+08  1.69665E+01 -1.00000E+00  1.72443E-01
      21    -1     0     0   515   513  0.000000000E+00  0.000000000E+00  1.621015529E+02  1.621015529E+02  0.000000000E+00  0.00000E+00  9.000E+00
      21    -1     0     0   516   515  0.000000000E+00  0.000000000E+00 -7.755281018E+00  7.755281018E+00  0.000000000E+00  0.00000E+00  9.000E+00
      21     1     1     2   512   513  8.252111345E-01  3.256096553E+01  9.530017407E+01  1.007125644E+02  0.000000000E+00  0.00000E+00  9.000E+00
      -1     1     1     2     0   512  9.262450315E-01 -1.625843381E+01  4.388515823E+01  4.681036864E+01  3.300000131E-01  0.00000E+00  9.000E+00
       1     1     1     2   516     0 -1.751456166E+00 -1.630253172E+01  1.516093956E+01  2.233390086E+01  3.300000131E-01  0.00000E+00  9.000E+00
</event>
<event>
      5  10001  2.02673E+08  1.62207E+01 -1.00000E+00  1.74195E-01
       2    -1     0     0   512     0  0.000000000E+00  0.000000000E+00  1.055109468E+01  1.055109468E+01  0.000000000E+00  0.00000E+00  9.000E+00
      21    -1     0     0   511   512  0.000000000E+00  0.000000000E+00 -4.007631361E+02  4.007631361E+02  0.000000000E+00  0.00000E+00  9.000E+00
      -5     1     1     2     0   514 -2.635555353E+01 -4.544283392E+01 -1.224293461E+02  1.333103564E+02  4.800000191E+00  0.00000E+00  9.000E+00
       5     1     1     2   511     0  2.702434511E+01  2.929099495E+01 -2.527778845E+02  2.559452607E+02  4.800000191E+00  0.00000E+00  9.000E+00
       2     1     1     2   514     0 -6.687915792E-01  1.615183896E+01 -1.500481089E+01  2.205861360E+01  3.300000131E-01  0.00000E+00  9.000E+00
</event>
<event>
      5  10001  2.02673E+08  1.14161E+01 -1.00000E+00  1.89280E-01
      21    -1     0     0   513   511  0.000000000E+00  0.000000000E+00  5.980487471E+01  5.980487471E+01  0.000000000E+00  0.00000E+00  9.000E+00
      21    -1     0     0   512   515  0.000000000E+00  0.000000000E+00 -1.089067990E+02  1.089067990E+02  0.000000000E+00  0.00000E+00  9.000E+00
      21     1     1     2   513   515  4.155355435E-01 -3.810613375E+01  2.735977508E+01  4.691276364E+01  4.768371582E-07  0.00000E+00  9.000E+00
      21     1     1     2   514   511  6.171987127E+00  2.878239791E+01  1.259172042E+01  3.201673433E+01  9.536743164E-07  0.00000E+00  9.000E+00
      21     1     1     2   512   514 -6.587522671E+00  9.323735847E+00 -8.905341976E+01  8.978217572E+01  9.536743164E-07  0.00000E+00  9.000E+00
</event>
<event>
      5  10001  2.02673E+08  2.07732E+01 -1.00000E+00  1.64980E-01
      21    -1     0     0   516   511  0.000000000E+00  0.000000000E+00  2.619107727E+02  2.619107727E+02  0.000000000E+00  0.00000E+00  9.000E+00
      21    -1     0     0   512   516  0.000000000E+00  0.000000000E+00 -1.573119648E+01  1.573119648E+01  0.000000000E+00  0.00000E+00  9.000E+00
      21     1     1     2   514   511  1.899408089E+01  2.815108407E+01  2.209663265E+02  2.235606766E+02  2.697398305E-06  0.00000E+00  9.000E+00
      21     1     1     2   513   514 -5.935785861E+00 -1.465358862E+01 -6.604688723E+00  1.713426761E+01  3.674277069E-07  0.00000E+00  9.000E+00
      21     1     1     2   512   513 -1.305829503E+01 -1.349749545E+01  3.181793836E+01  3.694702497E+01  5.840038640E-07  0.00000E+00  9.000E+00
</event>
<event>
      5  10001  2.02673E+08  3.83669E+01 -1.00000E+00  1.45940E-01
      21    -1     0     0   515   512  0.000000000E+00  0.000000000E+00  3.221032426E+01  3.221032426E+01  0.000000000E+00  0.00000E+00  9.000E+00
      21    -1     0     0   511   517  0.000000000E+00  0.000000000E+00 -4.231275713E+01  4.231275713E+01  0.000000000E+00  0.00000E+00  9.000E+00
      21     1     1     2   515   517 -2.517689056E+01  1.347302629E+01 -1.917554282E+01  3.439621634E+01  6.307962682E-07  0.00000E+00  9.000E+00
      21     1     1     2   511   514  1.185251692E+01 -8.172191198E-01 -8.572011196E+00  1.465023482E+01  2.064765462E-07  0.00000E+00  9.000E+00
      21     1     1     2   514   512  1.332437364E+01 -1.265580717E+01  1.764512114E+01  2.547663024E+01  6.743495762E-07  0.00000E+00  9.000E+00
</event>
<event>
      5  10001  2.02673E+08  6.80435E+01 -1.00000E+00  1.31821E-01
      21    -1     0     0   513   511  0.000000000E+00  0.000000000E+00  2.107675786E+02  2.107675786E+02  0.000000000E+00  0.00000E+00  9.000E+00
      21    -1     0     0   516   512  0.000000000E+00  0.000000000E+00 -2.335436669E+01  2.335436669E+01  0.000000000E+00  0.00000E+00  9.000E+00
      21     1     1     2   513   512  1.415503217E+01  2.511521609E+01 -9.893889753E+00  3.047996177E+01  4.915124924E-07  0.00000E+00  9.000E+00
      21     1     1     2   516   515 -1.648229660E+01 -1.186528384E+01  3.274977453E+01  3.853568209E+01  6.743495762E-07  0.00000E+00  9.000E+00
      21     1     1     2   515   511  2.327264426E+00 -1.324993225E+01  1.645573272E+02  1.651063015E+02  1.907348633E-06  0.00000E+00  9.000E+00
</event>
<event>
      5  10001  2.02673E+08  1.30192E+01 -1.00000E+00  1.83330E-01
       2    -1     0     0   512     0  0.000000000E+00  0.000000000E+00  1.939379528E+02  1.939379528E+02  0.000000000E+00  0.00000E+00  9.000E+00
      21    -1     0     0   514   515  0.000000000E+00  0.000000000E+00 -1.681263299E+02  1.681263299E+02  0.000000000E+00  0.00000E+00  9.000E+00
      21     1     1     2   512   513  1.654752407E+01 -1.033326369E+01 -1.394589495E+02  1.408168864E+02  3.303624740E-06  0.00000E+00  9.000E+00
       2     1     1     2   514     0 -1.798278862E+01  2.483470714E+01  1.900461644E+02  1.925040178E+02  3.300000131E-01  0.00000E+00  9.000E+00
      21     1     1     2   513   515  1.435264547E+00 -1.450144344E+01 -2.477559204E+01  2.874337849E+01  3.371747881E-07  0.00000E+00  9.000E+00
</event>
<event>
      5  10001  2.02673E+08  1.02834E+02 -1.00000E+00  1.23262E-01
       1    -1     0     0   513     0  0.000000000E+00  0.000000000E+00  1.908936031E+02  1.908936031E+02  0.000000000E+00  0.00000E+00  9.000E+00
      21    -1     0     0   511   515  0.000000000E+00  0.000000000E+00 -2.492578257E+01  2.492578257E+01  0.000000000E+00  0.00000E+00  9.000E+00
      21     1     1     2   512   515 -1.984501001E+01  9.950851854E+00  4.860380684E+01  5.343382743E+01  0.000000000E+00  0.00000E+00  9.000E+00
       1     1     1     2   511     0  4.740138197E+00 -3.197469916E+01  1.291939806E+02  1.331767390E+02  3.300000131E-01  0.00000E+00  9.000E+00
      21     1     1     2   513   512  1.510487182E+01  2.202384730E+01 -1.182996690E+01  2.920881921E+01  7.907449699E-07  0.00000E+00  9.000E+00
</event>
<event>
      5  10001  2.02673E+08  1.93402E+01 -1.00000E+00  1.67538E-01
      21    -1     0     0   511   512  0.000000000E+00  0.000000000E+00  3.200975518E+00  3.200975518E+00  0.000000000E+00  0.00000E+00  9.000E+00
       2    -1     0     0   512     0  0.000000000E+00  0.000000000E+00 -3.739622759E+02  3.739622759E+02  0.000000000E+00  0.00000E+00  9.000E+00
      21     1     1     2   511   514  1.865645362E+01  2.187669627E+01 -2.002413336E+02  2.022949451E+02  2.697398305E-06  0.00000E+00  9.000E+00
      21     1     1     2   514   515 -2.023517915E+01 -8.828514341E+00 -6.764286123E+01  7.115449259E+01  0.000000000E+00  0.00000E+00  9.000E+00
       2     1     1     2   515     0  1.578725532E+00 -1.304818193E+01 -1.028771055E+02  1.037138138E+02  3.300000131E-01  0.00000E+00  9.000E+00
</event>
<event>
      5  10001  2.02673E+08  5.48159E+00 -1.00000E+00  2.31662E-01
      21    -1     0     0   513   514  0.000000000E+00  0.000000000E+00  3.356715559E+02  3.356715559E+02  0.000000000E+00  0.00000E+00  9.000E+00
      21    -1     0     0   511   516  0.000000000E+00  0.000000000E+00 -7.969205650E+01  7.969205650E+01  0.000000000E+00  0.00000E+00  9.000E+00
      21     1     1     2   513   516 -4.575040124E+01 -1.658179127E+01  2.945857413E+02  2.985779864E+02  6.607249480E-06  0.00000E+00  9.000E+00
      21     1     1     2   512   514  4.027763735E+01  1.689277407E+01  2.673851981E+01  5.121134960E+01  2.132480600E-06  0.00000E+00  9.000E+00
      21     1     1     2   511   512  5.472763891E+00 -3.109828008E-01 -6.534476164E+01  6.557427643E+01  2.132480600E-06  0.00000E+00  9.000E+00
</event>
<event>
      5  10001  2.02673E+08  6.19026E+01 -1.00000E+00  1.33956E-01
      21    -1     0     0   511   512  0.000000000E+00  0.000000000E+00  7.746692832E+01  7.746692832E+01  0.000000000E+00  0.00000E+00  9.000E+00
      -1    -1     0     0     0   515  0.000000000E+00  0.000000000E+00 -7.767324248E+01  7.767324248E+01  0.000000000E+00  0.00000E+00  9.000E+00
      -1     1     1     2     0   512 -5.554815107E+00 -2.720424863E+01 -6.396310819E+01  6.973030348E+01  3.300000131E-01  0.00000E+00  9.000E+00
      21     1     1     2   513   515 -1.994056414E+01  9.809782869E-01  2.675474742E+01  3.338270400E+01  4.768371582E-07  0.00000E+00  9.000E+00
      21     1     1     2   511   513  2.549537925E+01  2.622327034E+01  3.700204661E+01  5.202716332E+01  1.168007728E-06  0.00000E+00  9.000E+00
</event>
<event>
      5  10001  2.02673E+08  3.18110E+01 -1.00000E+00  1.51258E-01
      21    -1     0     0   514   515  0.000000000E+00  0.000000000E+00  5.675285740E+01  5.675285740E+01  0.000000000E+00  0.00000E+00  9.000E+00
      21    -1     0     0   516   514  0.000000000E+00  0.000000000E+00 -2.506869687E+01  2.506869687E+01  0.000000000E+00  0.00000E+00  9.000E+00
      21     1     1     2   513   515  1.882733527E+01 -2.145885478E+01  3.519092693E+01  4.531393097E+01  0.000000000E+00  0.00000E+00  9.000E+00
      21     1     1     2   516   512 -1.146601306E+01  6.896865665E+00  8.847778629E+00  1.604117821E+01  3.153981341E-07  0.00000E+00  9.000E+00
      21     1     1     2   512   513 -7.361322201E+00  1.456198912E+01 -1.235454503E+01  2.046644509E+01  2.384185791E-07  0.00000E+00  9.000E+00
</event>
<event>
      5  10001  2.02673E+08  1.22975E+01 -1.00000E+00  1.85864E-01
      21    -1     0     0   512   513  0.000000000E+00  0.000000000E+00  7.942025643E+01  7.942025643E+01  0.000000000E+00  0.00000E+00  9.000E+00
       2    -1     0     0   514     0  0.000000000E+00  0.000000000E+00 -1.607107404E+02  1.607107404E+02  0.000000000E+00  0.00000E+00  9.000E+00
      21     1     1     2   512   511  3.731189376E+01 -2.836256720E+01  6.767511746E+01  8.231970699E+01  2.336015456E-06  0.00000E+00  9.000E+00
       2     1     1     2   511     0 -2.503455682E+01  2.906527709E+01 -9.480767651E+01  1.022747466E+02  3.300000131E-01  0.00000E+00  9.000E+00
      21     1     1     2   514   513 -1.227733695E+01 -7.027098909E-01 -5.415792493E+01  5.553654325E+01  0.000000000E+00  0.00000E+00  9.000E+00
</event>
<event>
      5  10001  2.02673E+08  6.17042E+00 -1.00000E+00  2.23522E-01
      21    -1     0     0   515   511  0.000000000E+00  0.000000000E+00  5.123228033E+01  5.123228033E+01  0.000000000E+00  0.00000E+00  9.000E+00
      21    -1     0     0   514   513  0.000000000E+00  0.000000000E+00 -2.803811148E+01  2.803811148E+01  0.000000000E+00  0.00000E+00  9.000E+00
      21     1     1     2   515   513 -5.998977031E-01 -3.410702604E+01  1.994100293E+01  3.951319654E+01  3.371747881E-07  0.00000E+00  9.000E+00
      21     1     1     2   514   512 -2.311459684E+00  3.600417126E+01  2.288271782E+00  3.615078674E+01  7.300048300E-07  0.00000E+00  9.000E+00
      21     1     1     2   512   511  2.911357387E+00 -1.897145217E+00  9.648941284E-01  3.606408530E+00  7.670842216E-08  0.00000E+00  9.000E+00
</event>
<event>
      5  10001  2.02673E+08  1.89027E+01 -1.00000E+00  1.68374E-01
       2    -1     0     0   516     0  0.000000000E+00  0.000000000E+00  6.329017754E+02  6.329017754E+02  0.000000000E+00  0.00000E+00  9.000E+00
      21    -1     0     0   517   511  0.000000000E+00  0.000000000E+00 -1.652262049E+01  1.652262049E+01  0.000000000E+00  0.00000E+00  9.000E+00
      21     1     1     2   516   511  2.206808522E+01  1.229134145E+01  8.873810635E+01  9.226336748E+01  1.651812370E-06  0.00000E+00  9.000E+00
      21     1     1     2   517   513 -2.137003722E+01 -3.118108984E+01  9.901701778E+00  3.907662412E+01  1.099055345E-06  0.00000E+00  9.000E+00
       2     1     1     2   513     0 -6.980479957E-01  1.888974840E+01  5.177393468E+02  5.180844043E+02  3.300000131E-01  0.00000E+00  9.000E+00
</event>
<event>
      5  10001  2.02673E+08  9.93321E+00 -1.00000E+00  1.96036E-01
       1    -1     0     0   511     0  0.000000000E+00  0.000000000E+00  4.529488996E+02  4.529488996E+02  0.000000000E+00  0.00000E+00  9.000E+00
      21    -1     0     0   513   514  0.000000000E+00  0.000000000E+00 -3.165426814E+02  3.165426814E+02  0.000000000E+00  0.00000E+00  9.000E+00
      21     1     1     2   513   512  3.607733814E+01  1.172265675E+01 -2.996463947E+02  3.020380056E+02  6.607249480E-06  0.00000E+00  9.000E+00
       1     1     1     2   512     0 -2.942157256E+01 -4.349095572E+00  4.496399011E+02  4.506225617E+02  3.300000131E-01  0.00000E+00  9.000E+00
      21     1     1     2   511   514 -6.655765582E+00 -7.373561178E+00 -1.358728823E+01  1.683101367E+01  1.685873940E-07  0.00000E+00  9.000E+00
</event>
<event>
      5  10001  2.02673E+08  3.35528E+01 -1.00000E+00  1.49705E-01
       2    -1     0     0   512     0  0.000000000E+00  0.000000000E+00  6.226633704E+02  6.226633704E+02  0.000000000E+00  0.00000E+00  9.000E+00
      21    -1     0     0   511   513  0.000000000E+00  0.000000000E+00 -3.535929737E+01  3.535929737E+01  0.000000000E+00  0.00000E+00  9.000E+00
      21     1     1     2   512   514 -1.208168069E+01  4.068420567E+01 -1.577855404E+01  4.527840950E+01  1.994752947E-06  0.00000E+00  9.000E+00
       2     1     1     2   511     0 -1.460559469E+01 -2.034756381E+01  5.456810945E+02  5.462557209E+02  3.300000131E-01  0.00000E+00  9.000E+00
      21     1     1     2   514   513  2.668727537E+01 -2.033664186E+01  5.740153255E+01  6.648853742E+01  1.168007728E-06  0.00000E+00  9.000E+00
</event>
<event>
      5  10001  2.02673E+08  1.83828E+01 -1.00000E+00  1.69405E-01
      21    -1     0     0   515   511  0.000000000E+00  0.000000000E+00  7.882983615E+01  7.882983615E+01  0.000000000E+00  0.00000E+00  9.000E+00
      21    -1     0     0   516   515  0.000000000E+00  0.000000000E+00 -7.239280094E+01  7.239280094E+01  0.000000000E+00  0.00000E+00  9.000E+00
      21     1     1     2   516   513 -2.582366007E+01 -1.735132491E+01 -6.447340601E+01  7.158735907E+01  0.000000000E+00  0.00000E+00  9.000E+00
      21     1     1     2   513   512  1.924899700E+01  1.455322665E+01  3.202548212E+01  4.009927426E+01  0.000000000E+00  0.00000E+00  9.000E+00
      21     1     1     2   512   511  6.574663071E+00  2.798098254E+00  3.888495911E+01  3.953600376E+01  4.768371582E-07  0.00000E+00  9.000E+00
</event>
<event>
      5  10001  2.02673E+08  5.53435E+01 -1.00000E+00  1.36578E-01
      21    -1     0     0   512   511  0.000000000E+00  0.000000000E+00  3.313318163E+01  3.313318163E+01  0.000000000E+00  0.00000E+00  9.000E+00
       2    -1     0     0   513     0  0.000000000E+00  0.000000000E+00 -8.553755314E+01  8.553755314E+01  0.000000000E+00  0.00000E+00  9.000E+00
      21     1     1     2   513   511 -1.427605048E+01 -6.693375328E+00 -3.914709220E+01  4.220310082E+01  4.768371582E-07  0.00000E+00  9.000E+00
      21     1     1     2   512   514  1.662305680E+01 -8.603646915E+00  2.727513529E+01  3.307992991E+01  5.840038640E-07  0.00000E+00  9.000E+00
       2     1     1     2   514     0 -2.347006323E+00  1.529702224E+01 -4.053241460E+01  4.338770404E+01  3.300000131E-01  0.00000E+00  9.000E+00
</event>
<event>
      5  10001  2.02673E+08  1.61736E+01 -1.00000E+00  1.74310E-01
       2    -1     0     0   515     0  0.000000000E+00  0.000000000E+00  6.968597799E+01  6.968597799E+01  0.000000000E+00  0.00000E+00  9.000E+00
      21    -1     0     0   514   512  0.000000000E+00  0.000000000E+00 -7.179185750E+01  7.179185750E+01  0.000000000E+00  0.00000E+00  9.000E+00
      21     1     1     2   515   512  3.594104606E+01 -1.076056964E-01 -5.866569958E+01  6.879996132E+01  9.536743164E-07  0.00000E+00  9.000E+00
      21     1     1     2   514   511 -2.326271651E+01  1.010241094E+01  4.826897772E+01  5.452620376E+01  9.536743164E-07  0.00000E+00  9.000E+00
       2     1     1     2   511     0 -1.267832955E+01 -9.994805243E+00  8.290842351E+00  1.815167041E+01  3.300000131E-01  0.00000E+00  9.000E+00
</event>
<event>
      5  10001  2.02673E+08  1.66546E+01 -1.00000E+00  1.73162E-01
       3    -1     0     0   511     0  0.000000000E+00  0.000000000E+00  8.407435686E+01  8.407435686E+01  0.000000000E+00  0.00000E+00  9.000E+00
       3    -1     0     0   514     0  0.000000000E+00  0.000000000E+00 -9.908570677E+01  9.908570677E+01  0.000000000E+00  0.00000E+00  9.000E+00
      21     1     1     2   514   513 -2.024002218E+01  3.311474329E+01 -8.481586043E+01  9.327365599E+01  1.348699152E-06  0.00000E+00  9.000E+00
       3     1     1     2   511     0  8.460053611E+00 -2.134278045E+01  6.952880703E+01  7.322289117E+01  5.000000000E-01  0.00000E+00  9.000E+00
       3     1     1     2   513     0  1.177996857E+01 -1.177196284E+01  2.757034975E-01  1.666351647E+01  5.000000000E-01  0.00000E+00  9.000E+00
</event>
<event>
      5  10001  2.02673E+08  8.26543E+00 -1.00000E+00  2.05769E-01
       2    -1     0     0   513     0  0.000000000E+00  0.000000000E+00  6.321939871E+02  6.321939871E+02  0.000000000E+00  0.00000E+00  9.000E+00
      21    -1     0     0   512   511  0.000000000E+00  0.000000000E+00 -3.664060665E+00  3.664060665E+00  0.000000000E+00  0.00000E+00  9.000E+00
      21     1     1     2   513   511  4.426462006E+01 -2.853361364E-01  2.036172147E+02  2.083732424E+02  3.814697266E-06  0.00000E+00  9.000E+00
       2     1     1     2   514     0 -3.749151693E+01  1.871089363E+00  2.939310092E+02  2.963185143E+02  3.300000131E-01  0.00000E+00  9.000E+00
      21     1     1     2   512   514 -6.773103138E+00 -1.585753227E+00  1.309817025E+02  1.311662911E+02  1.907348633E-06  0.00000E+00  9.000E+00
</event>
<event>
      5  10001  2.02673E+08  5.38629E+00 -1.00000E+00  2.32921E-01
      21    -1     0     0   515   511  0.000000000E+00  0.000000000E+00  1.055866895E+02  1.055866895E+02  0.000000000E+00  0.00000E+00  9.000E+00
      21    -1     0     0   512   516  0.000000000E+00  0.000000000E+00 -3.008236717E+02  3.008236717E+02  0.000000000E+00  0.00000E+00  9.000E+00
      21     1     1     2   515   516  3.534405666E+01  3.981442036E+01 -2.914866926E+02  2.963087618E+02  3.814697266E-06  0.00000E+00  9.000E+00
      21     1     1     2   513   511 -1.437257279E+01 -1.633564493E+01  4.436242601E+01  4.941102089E+01  1.430511475E-06  0.00000E+00  9.000E+00
      21     1     1     2   512   513 -2.097148387E+01 -2.347877543E+01  5.188728439E+01  6.069057845E+01  3.015782986E-06  0.00000E+00  9.000E+00
</event>
<event>
      5  10001  2.02673E+08  1.49173E+01 -1.00000E+00  1.77562E-01
      21    -1     0     0   513   511  0.000000000E+00  0.000000000E+00  1.922563670E+01  1.922563670E+01  0.000000000E+00  0.00000E+00  9.000E+00
       1    -1     0     0   511     0  0.000000000E+00  0.000000000E+00 -6.792509820E+02  6.792509820E+02  0.000000000E+00  0.00000E+00  9.000E+00
      21     1     1     2   513   514  2.085534273E+01 -2.423809168E+01 -7.882500962E-01  3.198518011E+01  1.021137339E-06  0.00000E+00  9.000E+00
       1     1     1     2   512     0 -3.004607409E+01  4.009535118E+01 -6.299675709E+02  6.319570025E+02  3.300000131E-01  0.00000E+00  9.000E+00
      21     1     1     2   514   512  9.190731369E+00 -1.585725949E+01 -2.926952439E+01  3.453443614E+01  5.840038640E-07  0.00000E+00  9.000E+00
</event>
<event>
      5  10001  2.02673E+08  4.81791E+01 -1.00000E+00  1.39972E-01
       2    -1     0     0   513     0  0.000000000E+00  0.000000000E+00  6.579420361E+02  6.579420361E+02  0.000000000E+00  0.00000E+00  9.000E+00
      21    -1     0     0   512   511  0.000000000E+00  0.000000000E+00 -5.072775290E+01  5.072775290E+01  0.000000000E+00  0.00000E+00  9.000E+00
      21     1     1     2   512   515  3.490577673E+01  2.651585416E+01  2.925252486E+01  5.269927877E+01  2.384185791E-06  0.00000E+00  9.000E+00
       2     1     1     2   515     0 -7.542070239E+01 -4.435096658E-01  5.987616577E+02  6.034932565E+02  3.300000131E-01  0.00000E+00  9.000E+00
      21     1     1     2   513   511  4.051492565E+01 -2.607234450E+01 -2.079989932E+01  5.247725374E+01  1.168007728E-06  0.00000E+00  9.000E+00
</event>
<event>
      5  10001  2.02673E+08  1.82916E+01 -1.00000E+00  1.69590E-01
      21    -1     0     0   512   514  0.000000000E+00  0.000000000E+00  6.877348364E+01  6.877348364E+01  0.000000000E+00  0.00000E+00  9.000E+00
      -3    -1     0     0     0   515  0.000000000E+00  0.000000000E+00 -2.170809191E+02  2.170809191E+02  0.000000000E+00  0.00000E+00  9.000E+00
      -3     1     1     2     0   514  4.491289081E+00 -2.476469766E+01 -1.754188603E+02  1.772159374E+02  5.000000000E-01  0.00000E+00  9.000E+00
      21     1     1     2   512   511  6.974417495E+00  3.901665500E+01  5.947009930E+01  7.146771703E+01  2.132480600E-06  0.00000E+00  9.000E+00
      21     1     1     2   511   515 -1.146570658E+01 -1.425195734E+01 -3.235867444E+01  3.717074827E+01  4.768371582E-07  0.00000E+00  9.000E+00
</event>
<event>
      5  10001  2.02673E+08  5.82555E+00 -1.00000E+00  2.27401E-01
      21    -1     0     0   513   515  0.000000000E+00  0.000000000E+00  1.585488273E+02  1.585488273E+02  0.000000000E+00  0.00000E+00  9.000E+00
      21    -1     0     0   514   516  0.000000000E+00  0.000000000E+00 -3.644232586E+01  3.644232586E+01  0.000000000E+00  0.00000E+00  9.000E+00
      21     1     1     2   513   516 -3.793824360E+01 -1.892874963E+01  1.413235448E+02  1.475464408E+02  0.000000000E+00  0.00000E+00  9.000E+00
      21     1     1     2   514   512  2.581333625E+01  1.745072204E+01 -1.346706672E+01  3.394433552E+01  1.105501472E-06  0.00000E+00  9.000E+00
      21     1     1     2   512   515  1.212490735E+01  1.478027590E+00 -5.749976602E+00  1.350037684E+01  5.264139692E-07  0.00000E+00  9.000E+00
</event>
<event>
      5  10001  2.02673E+08  1.08584E+01 -1.00000E+00  1.91655E-01
      21    -1     0     0   511   513  0.000000000E+00  0.000000000E+00  2.498053020E+01  2.498053020E+01  0.000000000E+00  0.00000E+00  9.000E+00
      21    -1     0     0   515   511  0.000000000E+00  0.000000000E+00 -1.007768056E+02  1.007768056E+02  0.000000000E+00  0.00000E+00  9.000E+00
      21     1     1     2   515   517  8.740491541E+00 -2.984469460E+01 -7.717062243E+01  8.320100332E+01  1.907348633E-06  0.00000E+00  9.000E+00
      21     1     1     2   517   514  2.114489471E+00  3.011837806E+01  5.949995111E+00  3.077320595E+01  6.795975119E-07  0.00000E+00  9.000E+00
      21     1     1     2   514   513 -1.085498101E+01 -2.736834538E-01 -4.575648094E+00  1.178312653E+01  3.209808354E-07  0.00000E+00  9.000E+00
</event>
<event>
      5  10001  2.02673E+08  3.87817E+01 -1.00000E+00  1.45647E-01
      21    -1     0     0   512   516  0.000000000E+00  0.000000000E+00  1.605229026E+01  1.605229026E+01  0.000000000E+00  0.00000E+00  9.000E+00
      21    -1     0     0   515   513  0.000000000E+00  0.000000000E+00 -8.652995731E+01  8.652995731E+01  0.000000000E+00  0.00000E+00  9.000E+00
      21     1     1     2   512   513 -2.750065346E+01 -1.080346864E+00 -5.102370525E+01  5.797302465E+01  0.000000000E+00  0.00000E+00  9.000E+00
      21     1     1     2   515   511  5.767805982E+00  1.375262185E+01 -8.550088274E+00  1.719029386E+01  2.920019320E-07  0.00000E+00  9.000E+00
      21     1     1     2   511   516  2.173284748E+01 -1.267227498E+01 -1.090387353E+01  2.741892906E+01  3.576278687E-07  0.00000E+00  9.000E+00
</event>
<event>
      5  10001  2.02673E+08  3.74363E+00 -1.00000E+00  2.70323E-01
       2    -1     0     0   513     0  0.000000000E+00  0.000000000E+00  1.516060201E+02  1.516060201E+02  0.000000000E+00  0.00000E+00  9.000E+00
      21    -1     0     0   512   514  0.000000000E+00  0.000000000E+00 -1.194325143E+03  1.194325143E+03  0.000000000E+00  0.00000E+00  9.000E+00
      21     1     1     2   513   514  3.705124203E+01 -6.379617326E+00 -8.849632073E+00  3.862395683E+01  1.032382731E-06  0.00000E+00  9.000E+00
       2     1     1     2   511     0 -3.533186850E+01  3.054181828E+00  1.344158735E+02  1.390158441E+02  3.300000131E-01  0.00000E+00  9.000E+00
      21     1     1     2   512   511 -1.719373527E+00  3.325435497E+00 -1.168285364E+03  1.168291362E+03  0.000000000E+00  0.00000E+00  9.000E+00
</event>
<event>
      5  10001  2.02673E+08  2.96511E+01 -1.00000E+00  1.53358E-01
      21    -1     0     0   515   511  0.000000000E+00  0.000000000E+00  1.669329831E+02  1.669329831E+02  0.000000000E+00  0.00000E+00  9.000E+00
      21    -1     0     0   512   516  0.000000000E+00  0.000000000E+00 -9.066297132E+00  9.066297132E+00  0.000000000E+00  0.00000E+00  9.000E+00
      21     1     1     2   515   516 -2.663259177E+01  1.516075027E+01  5.381374912E+01  6.192788458E+01  9.536743164E-07  0.00000E+00  9.000E+00
      21     1     1     2   512   513  1.004228179E+01 -2.521304977E+01  6.592115618E+01  7.128915860E+01  9.536743164E-07  0.00000E+00  9.000E+00
      21     1     1     2   513   511  1.659030999E+01  1.005229949E+01  3.813178065E+01  4.278223704E+01  6.743495762E-07  0.00000E+00  9.000E+00
</event>
<event>
      5  10001  2.02673E+08  7.87484E+00 -1.00000E+00  2.08503E-01
      21    -1     0     0   513   511  0.000000000E+00  0.000000000E+00  1.845383955E+01  1.845383955E+01  0.000000000E+00  0.00000E+00  9.000E+00
       2    -1     0     0   512     0  0.000000000E+00  0.000000000E+00 -1.972701516E+02  1.972701516E+02  0.000000000E+00  0.00000E+00  9.000E+00
      21     1     1     2   512   511  1.171160874E+01 -3.470727411E+01 -4.011325863E+00  3.684898086E+01  4.951133646E-07  0.00000E+00  9.000E+00
      21     1     1     2   513   514 -4.570675879E+00  2.484953254E+01 -1.036144044E+02  1.066505281E+02  1.348699152E-06  0.00000E+00  9.000E+00
       2     1     1     2   514     0 -7.140932856E+00  9.857741575E+00 -7.119058172E+01  7.222448212E+01  3.300000131E-01  0.00000E+00  9.000E+00
</event>
<event>
      5  10001  2.02673E+08  1.82786E+01 -1.00000E+00  1.69617E-01
       2    -1     0     0   515     0  0.000000000E+00  0.000000000E+00  3.012159259E+02  3.012159259E+02  0.000000000E+00  0.00000E+00  9.000E+00
      21    -1     0     0   514   513  0.000000000E+00  0.000000000E+00 -6.581850642E+01  6.581850642E+01  0.000000000E+00  0.00000E+00  9.000E+00
      21     1     1     2   515   513  1.229339650E+01 -2.973372358E+01 -5.959524191E+01  6.772602730E+01  0.000000000E+00  0.00000E+00  9.000E+00
       2     1     1     2   511     0 -8.125984279E+00  3.926574940E+01  2.428124456E+02  2.461012461E+02  3.300000131E-01  0.00000E+00  9.000E+00
      21     1     1     2   514   511 -4.167412223E+00 -9.532025815E+00  5.218021579E+01  5.320715893E+01  6.743495762E-07  0.00000E+00  9.000E+00
</event>
<event>
      5  10001  2.02673E+08  6.51471E+01 -1.00000E+00  1.32794E-01
      21    -1     0     0   512   511  0.000000000E+00  0.000000000E+00  9.093431259E+01  9.093431259E+01  0.000000000E+00  0.00000E+00  9.000E+00
      21    -1     0     0   514   516  0.000000000E+00  0.000000000E+00 -2.460953231E+01  2.460953231E+01  0.000000000E+00  0.00000E+00  9.000E+00
      21     1     1     2   512   516 -3.066667150E+01 -1.455373451E+00  4.638698958E+01  5.562657328E+01  9.536743164E-07  0.00000E+00  9.000E+00
      21     1     1     2   514   513  1.211172176E+01 -5.759171060E+00  3.332782733E+01  3.592500424E+01  0.000000000E+00  0.00000E+00  9.000E+00
      21     1     1     2   513   511  1.855494974E+01  7.214544511E+00 -1.339003663E+01  2.399226737E+01  1.025477084E-06  0.00000E+00  9.000E+00
</event>
<event>
      5  10001  2.02673E+08  4.48320E+01 -1.00000E+00  1.41804E-01
       2    -1     0     0   512     0  0.000000000E+00  0.000000000E+00  3.280835524E+02  3.280835524E+02  0.000000000E+00  0.00000E+00  9.000E+00
      21    -1     0     0   514   512  0.000000000E+00  0.000000000E+00 -2.475225464E+01  2.475225464E+01  0.000000000E+00  0.00000E+00  9.000E+00
      21     1     1     2   515   513 -1.319588490E+01  3.015591473E+01  1.478474984E+02  1.514674663E+02  2.697398305E-06  0.00000E+00  9.000E+00
       2     1     1     2   513     0 -4.035829271E+00 -7.154382239E+01  1.333187313E+02  1.513565309E+02  3.300000131E-01  0.00000E+00  9.000E+00
      21     1     1     2   514   515  1.723171417E+01  4.138790767E+01  2.216506804E+01  5.001180976E+01  7.907449699E-07  0.00000E+00  9.000E+00
</event>
<event>
      5  10001  2.02673E+08  1.75309E+01 -1.00000E+00  1.71189E-01
       2    -1     0     0   512     0  0.000000000E+00  0.000000000E+00  2.283774549E+02  2.283774549E+02  0.000000000E+00  0.00000E+00  9.000E+00
       1    -1     0     0   513     0  0.000000000E+00  0.000000000E+00 -2.146229567E+02  2.146229567E+02  0.000000000E+00  0.00000E+00  9.000E+00
      21     1     1     2   513   511  4.106159212E+01  3.173249699E+01 -2.095498220E+00  5.193646913E+01  3.625608999E-07  0.00000E+00  9.000E+00
       2     1     1     2   511     0 -2.427361050E+01 -2.668322291E+01  2.014414986E+02  2.046460085E+02  3.300000131E-01  0.00000E+00  9.000E+00
       1     1     1     2   512     0 -1.678798163E+01 -5.049274075E+00 -1.855915022E+02  1.864179340E+02  3.300000131E-01  0.00000E+00  9.000E+00
</event>
<event>
      5  10001  2.02673E+08  1.52039E+01 -1.00000E+00  1.76786E-01
      21    -1     0     0   513   515  0.000000000E+00  0.000000000E+00  8.180010489E+01  8.180010489E+01  0.000000000E+00  0.00000E+00  9.000E+00
      -4    -1     0     0     0   514  0.000000000E+00  0.000000000E+00 -1.909328835E+01  1.909328835E+01  0.000000000E+00  0.00000E+00  9.000E+00
      -4     1     1     2     0   515  1.250322522E+01  2.956801097E+01  3.567163118E+00  3.233531454E+01  1.500000000E+00  0.00000E+00  9.000E+00
      -4     1     1     2     0   514 -7.462594625E+00 -1.462658116E+01  1.768014741E+01  2.417570697E+01  1.500000000E+00  0.00000E+00  9.000E+00
       4     1     1     2   513     0 -5.040630593E+00 -1.494142981E+01  4.145950602E+01  4.438237174E+01  1.500000000E+00  0.00000E+00  9.000E+00
</event>
<event>
      5  10001  2.02673E+08  3.59363E+01 -1.00000E+00  1.47753E-01
      21    -1     0     0   511   516  0.000000000E+00  0.000000000E+00  5.045706721E+00  5.045706721E+00  0.000000000E+00  0.00000E+00  9.000E+00
      21    -1     0     0   515   512  0.000000000E+00  0.000000000E+00 -3.005668926E+02  3.005668926E+02  0.000000000E+00  0.00000E+00  9.000E+00
      21     1     1     2   511   512 -1.938832931E+00  2.316099038E+01 -1.074486876E+02  1.099336664E+02  0.000000000E+00  0.00000E+00  9.000E+00
      21     1     1     2   515   514 -1.087242708E+01 -3.291824703E+01 -1.558164882E+02  1.596264347E+02  0.000000000E+00  0.00000E+00  9.000E+00
      21     1     1     2   514   516  1.281126001E+01  9.757256649E+00 -3.225601014E+01  3.605249826E+01  8.259061849E-07  0.00000E+00  9.000E+00
</event>
<event>
      5  10001  2.02673E+08  2.79275E+01 -1.00000E+00  1.55195E-01
       1    -1     0     0   512     0  0.000000000E+00  0.000000000E+00  5.889347972E+01  5.889347972E+01  0.000000000E+00  0.00000E+00  9.000E+00
      21    -1     0     0   513   514  0.000000000E+00  0.000000000E+00 -8.420922639E+01  8.420922639E+01  0.000000000E+00  0.00000E+00  9.000E+00
      21     1     1     2   511   514  9.471133026E-01 -1.573293564E+01 -4.813121311E+01  5.064618409E+01  0.000000000E+00  0.00000E+00  9.000E+00
       1     1     1     2   513     0 -2.135392608E+01  3.652038414E+01  4.034416686E+01  5.845929624E+01  3.300000131E-01  0.00000E+00  9.000E+00
      21     1     1     2   512   511  2.040681278E+01 -2.078744850E+01 -1.752870042E+01  3.399722579E+01  4.129530925E-07  0.00000E+00  9.000E+00
</event>
<event>
      5  10001  2.02673E+08  2.40215E+01 -1.00000E+00  1.60022E-01
       2    -1     0     0   513     0  0.000000000E+00  0.000000000E+00  3.386187231E+01  3.386187231E+01  0.000000000E+00  0.00000E+00  9.000E+00
      21    -1     0     0   514   515  0.000000000E+00  0.000000000E+00 -4.067624601E+02  4.067624601E+02  0.000000000E+00  0.00000E+00  9.000E+00
      21     1     1     2   513   515  1.550087771E+01 -3.544151976E+01 -1.006099651E+01  3.997001606E+01  9.078709013E-07  0.00000E+00  9.000E+00
       2     1     1     2   512     0 -2.377699662E+01  1.289081931E+01  8.642957123E+00  2.839592222E+01  3.300000131E-01  0.00000E+00  9.000E+00
      21     1     1     2   514   512  8.276118918E+00  2.255070046E+01 -3.714825484E+02  3.722583942E+02  5.394796609E-06  0.00000E+00  9.000E+00
</event>
<event>
      5  10001  2.02673E+08  3.21258E+01 -1.00000E+00  1.50969E-01
       2    -1     0     0   514     0  0.000000000E+00  0.000000000E+00  2.547123199E+02  2.547123199E+02  0.000000000E+00  0.00000E+00  9.000E+00
      21    -1     0     0   511   512  0.000000000E+00  0.000000000E+00 -6.623319014E+00  6.623319014E+00  0.000000000E+00  0.00000E+00  9.000E+00
      21     1     1     2   514   512 -2.657287631E+01  1.745412863E+01  5.319569861E+01  6.197214464E+01  0.000000000E+00  0.00000E+00  9.000E+00
      21     1     1     2   511   513  6.279867392E+00 -1.814929624E+01  6.137287618E+01  6.430757047E+01  6.743495762E-07  0.00000E+00  9.000E+00
       2     1     1     2   513     0  2.029300892E+01  6.951676087E-01  1.335204261E+02  1.350559238E+02  3.300000131E-01  0.00000E+00  9.000E+00
</event>
<event>
      5  10001  2.02673E+08  4.78337E+01 -1.00000E+00  1.40153E-01
      21    -1     0     0   515   511  0.000000000E+00  0.000000000E+00  2.622733612E+02  2.622733612E+02  0.000000000E+00  0.00000E+00  9.000E+00
      21    -1     0     0   517   516  0.000000000E+00  0.000000000E+00 -3.913148626E+01  3.913148626E+01  0.000000000E+00  0.00000E+00  9.000E+00
      21     1     1     2   515   516  1.577524863E+01  3.908248426E+01 -2.479083449E+01  4.889667186E+01  8.920806376E-07  0.00000E+00  9.000E+00
      21     1     1     2   517   512 -1.107178041E+01 -7.008301513E+00  4.075695625E+01  4.281156496E+01  0.000000000E+00  0.00000E+00  9.000E+00
      21     1     1     2   512   511 -4.703468219E+00 -3.207418274E+01  2.071757532E+02  2.096966107E+02  2.697398305E-06  0.00000E+00  9.000E+00
</event>
<event>
      5  10001  2.02673E+08  9.53035E+00 -1.00000E+00  1.98144E-01
       2    -1     0     0   514     0  0.000000000E+00  0.000000000E+00  2.832544809E+01  2.832544809E+01  0.000000000E+00  0.00000E+00  9.000E+00
      21    -1     0     0   515   513  0.000000000E+00  0.000000000E+00 -8.111925139E+01  8.111925139E+01  0.000000000E+00  0.00000E+00  9.000E+00
      21     1     1     2   514   513  2.364758533E+01 -2.688723958E+01 -1.381782645E+00  3.583352156E+01  1.035067736E-06  0.00000E+00  9.000E+00
       2     1     1     2   512     0 -1.641244826E+01  2.068428498E+01 -5.828851606E+00  2.704242064E+01  3.300000131E-01  0.00000E+00  9.000E+00
      21     1     1     2   515   512 -7.235137071E+00  6.202954600E+00 -4.558316905E+01  4.656875728E+01  6.743495762E-07  0.00000E+00  9.000E+00
</event>
<event>
      5  10001  2.02673E+08  1.13914E+01 -1.00000E+00  1.89382E-01
      21    -1     0     0   511   512  0.000000000E+00  0.000000000E+00  2.178480265E+02  2.178480265E+02  0.000000000E+00  0.00000E+00  9.000E+00
      21    -1     0     0   515   516  0.000000000E+00  0.000000000E+00 -6.000459794E+00  6.000459794E+00  0.000000000E+00  0.00000E+00  9.000E+00
      21     1     1     2   511   516  2.697208069E+01 -1.875468318E+01  6.407192502E+01  7.200307531E+01  1.651812370E-06  0.00000E+00  9.000E+00
      21     1     1     2   515   513 -1.720574059E+01  4.812759824E+00  7.888332851E+01  8.088126905E+01  1.348699152E-06  0.00000E+00  9.000E+00
      21     1     1     2   513   512 -9.766340104E+00  1.394192336E+01  6.889231318E+01  7.096414194E+01  9.536743164E-07  0.00000E+00  9.000E+00
</event>
<event>
      5  10001  2.02673E+08  2.18335E+01 -1.00000E+00  1.63246E-01
      21    -1     0     0   514   515  0.000000000E+00  0.000000000E+00  2.645139121E+02  2.645139121E+02  0.000000000E+00  0.00000E+00  9.000E+00
      21    -1     0     0   517   512  0.000000000E+00  0.000000000E+00 -9.089812421E+00  9.089812421E+00  0.000000000E+00  0.00000E+00  9.000E+00
      21     1     1     2   514   512 -1.961699248E+01  3.609421823E+01  5.650911599E+01  6.986343230E+01  1.168007728E-06  0.00000E+00  9.000E+00
      21     1     1     2   517   511  3.983573183E+00 -8.985926111E+00  8.631152350E+01  8.686941241E+01  0.000000000E+00  0.00000E+00  9.000E+00
      21     1     1     2   511   515  1.563341930E+01 -2.710829211E+01  1.126034602E+02  1.168708798E+02  1.348699152E-06  0.00000E+00  9.000E+00
</event>
<event>
      5  10001  2.02673E+08  8.11119E+00 -1.00000E+00  2.06824E-01
      21    -1     0     0   513   512  0.000000000E+00  0.000000000E+00  6.870208021E+01  6.870208021E+01  0.000000000E+00  0.00000E+00  9.000E+00
      21    -1     0     0   516   515  0.000000000E+00  0.000000000E+00 -3.674449469E+01  3.674449469E+01  0.000000000E+00  0.00000E+00  9.000E+00
      21     1     1     2   513   515 -2.834209249E+01  1.316861565E+01  5.699521784E+01  6.500108846E+01  1.168007728E-06  0.00000E+00  9.000E+00
      21     1     1     2   516   514  1.058975672E+01 -1.997719177E+00 -7.955651208E+00  1.339500710E+01  2.528810911E-07  0.00000E+00  9.000E+00
      21     1     1     2   514   512  1.775233577E+01 -1.117089647E+01 -1.708198111E+01  2.705047933E+01  5.840038640E-07  0.00000E+00  9.000E+00
</event>
<event>
      5  10001  2.02673E+08  6.89501E+00 -1.00000E+00  2.16413E-01
      21    -1     0     0   514   512  0.000000000E+00  0.000000000E+00  4.975081485E+01  4.975081485E+01  0.000000000E+00  0.00000E+00  9.000E+00
       2    -1     0     0   512     0  0.000000000E+00  0.000000000E+00 -6.382327982E+02  6.382327982E+02  0.000000000E+00  0.00000E+00  9.000E+00
      21     1     1     2   514   513  8.065279296E+00 -1.969454254E+01  3.664093413E+01  4.237312579E+01  6.743495762E-07  0.00000E+00  9.000E+00
       2     1     1     2   511     0 -1.300037556E+01  3.073173466E+01 -6.311981698E+02  6.320796530E+02  3.300000131E-01  0.00000E+00  9.000E+00
      21     1     1     2   513   511  4.935096260E+00 -1.103719213E+01  6.075252314E+00  1.353083426E+01  4.915124924E-07  0.00000E+00  9.000E+00
</event>
<event>
      5  10001  2.02673E+08  5.43217E+00 -1.00000E+00  2.32310E-01
      21    -1     0     0   513   512  0.000000000E+00  0.000000000E+00  3.324020255E+02  3.324020255E+02  0.000000000E+00  0.00000E+00  9.000E+00
      21    -1     0     0   511   513  0.000000000E+00  0.000000000E+00 -9.076860430E+00  9.076860430E+00  0.000000000E+00  0.00000E+00  9.000E+00
      21     1     1     2   511   515 -7.137354407E+00 -3.280091539E+01  7.936330506E+01  8.617062184E+01  1.651812370E-06  0.00000E+00  9.000E+00
       5     1     1     2   515     0  1.802057727E+00  3.195735506E+01  4.108317400E+01  5.230092869E+01  4.800000191E+00  0.00000E+00  9.000E+00
      -5     1     1     2     0   512  5.335296680E+00  8.435603260E-01  2.028786861E+02  2.030073354E+02  4.800000191E+00  0.00000E+00  9.000E+00
</event>
<event>
      5  10001  2.02673E+08  3.46176E+01 -1.00000E+00  1.48810E-01
      21    -1     0     0   514   515  0.000000000E+00  0.000000000E+00  1.546300040E+02  1.546300040E+02  0.000000000E+00  0.00000E+00  9.000E+00
      21    -1     0     0   511   512  0.000000000E+00  0.000000000E+00 -1.345615849E+01  1.345615849E+01  0.000000000E+00  0.00000E+00  9.000E+00
      21     1     1     2   514   512  6.104184187E+00 -3.753307426E+01  5.485431837E+01  6.674570377E+01  6.743495762E-07  0.00000E+00  9.000E+00
      21     1     1     2   511   513  9.424699865E+00  2.410149609E+01  2.247533002E+01  3.427604908E+01  3.371747881E-07  0.00000E+00  9.000E+00
      21     1     1     2   513   515 -1.552888405E+01  1.343157817E+01  6.384419710E+01  6.706440960E+01  6.743495762E-07  0.00000E+00  9.000E+00
</event>
<event>
      5  10001  2.02673E+08  6.83284E+00 -1.00000E+00  2.16976E-01
      21    -1     0     0   511   515  0.000000000E+00  0.000000000E+00  1.650694731E+01  1.650694731E+01  0.000000000E+00  0.00000E+00  9.000E+00
       2    -1     0     0   515     0  0.000000000E+00  0.000000000E+00 -2.232910026E+02  2.232910026E+02  0.000000000E+00  0.00000E+00  9.000E+00
      21     1     1     2   511   512 -2.200838137E+01  1.826693790E+01 -3.684706358E+01  4.664499935E+01  4.768371582E-07  0.00000E+00  9.000E+00
       2     1     1     2   513     0  4.269163764E+01 -4.192159671E+01 -1.211972171E+02  1.351623858E+02  3.300000131E-01  0.00000E+00  9.000E+00
      21     1     1     2   512   513 -2.068325627E+01  2.365465881E+01 -4.873977462E+01  5.799056478E+01  6.743495762E-07  0.00000E+00  9.000E+00
</event>
<event>
      5  10001  2.02673E+08  1.47499E+01 -1.00000E+00  1.78026E-01
       2    -1     0     0   512     0  0.000000000E+00  0.000000000E+00  4.039941334E+01  4.039941334E+01  0.000000000E+00  0.00000E+00  9.000E+00
       1    -1     0     0   514     0  0.000000000E+00  0.000000000E+00 -8.193965993E+02  8.193965993E+02  0.000000000E+00  0.00000E+00  9.000E+00
      21     1     1     2   512   513 -2.594547781E+01 -1.272887439E+01 -1.877040071E+01  3.446041214E+01  8.259061849E-07  0.00000E+00  9.000E+00
       2     1     1     2   514     0  2.253784659E+01  2.707975247E+01  2.293145016E+01  4.203840898E+01  3.300000131E-01  0.00000E+00  9.000E+00
       1     1     1     2   513     0  3.407631220E+00 -1.435087809E+01 -7.831582354E+02  7.832971915E+02  3.300000131E-01  0.00000E+00  9.000E+00
</event>
<event>
      5  10001  2.02673E+08  7.09686E+00 -1.00000E+00  2.14643E-01
      21    -1     0     0   511   513  0.000000000E+00  0.000000000E+00  2.992494970E+02  2.992494970E+02  0.000000000E+00  0.00000E+00  9.000E+00
      21    -1     0     0   515   511  0.000000000E+00  0.000000000E+00 -4.636720500E+00  4.636720500E+00  0.000000000E+00  0.00000E+00  9.000E+00
      21     1     1     2   515   516  1.407179753E+01  3.112340355E+01  1.973324152E+02  2.002667317E+02  2.697398305E-06  0.00000E+00  9.000E+00
      21     1     1     2   516   512 -6.526264224E+00 -2.410375399E+01  7.553114344E+01  7.955210060E+01  9.536743164E-07  0.00000E+00  9.000E+00
      21     1     1     2   512   513 -7.545533308E+00 -7.019649560E+00  2.174921785E+01  2.406738519E+01  2.384185791E-07  0.00000E+00  9.000E+00
</event>
<event>
      5  10001  2.02673E+08  5.32821E+00 -1.00000E+00  2.33706E-01
      21    -1     0     0   512   511  0.000000000E+00  0.000000000E+00  6.894369713E+01  6.894369713E+01  0.000000000E+00  0.00000E+00  9.000E+00
       1    -1     0     0   514     0  0.000000000E+00  0.000000000E+00 -6.769796206E+01  6.769796206E+01  0.000000000E+00  0.00000E+00  9.000E+00
      21     1     1     2   514   513 -1.994947349E+01  3.568636543E+01 -4.175889131E+01  5.844059526E+01  1.066240300E-06  0.00000E+00  9.000E+00
       1     1     1     2   512     0  1.990363891E+01 -4.101433526E+01  1.255262626E+01  4.728644483E+01  3.300000131E-01  0.00000E+00  9.000E+00
      21     1     1     2   513   511  4.583458312E-02  5.327969828E+00  3.045200012E+01  3.091461911E+01  3.371747881E-07  0.00000E+00  9.000E+00
</event>
<event>
      5  10001  2.02673E+08  2.31561E+00 -1.00000E+00  3.35588E-01
      21    -1     0     0   515   514  0.000000000E+00  0.000000000E+00  3.549884526E+01  3.549884526E+01  0.000000000E+00  0.00000E+00  9.000E+00
      21    -1     0     0   511   515  0.000000000E+00  0.000000000E+00 -2.705937909E+02  2.705937909E+02  0.000000000E+00  0.00000E+00  9.000E+00
      21     1     1     2   516   514 -3.051057390E+01  1.238310069E+00  2.783886122E+01  4.132106878E+01  8.920806376E-07  0.00000E+00  9.000E+00
      21     1     1     2   511   512  2.833560773E+01  2.323907164E-02 -2.293497176E+02  2.310934879E+02  4.672030912E-06  0.00000E+00  9.000E+00
      21     1     1     2   512   516  2.174966166E+00 -1.261549141E+00 -3.358408928E+01  3.367807947E+01  4.768371582E-07  0.00000E+00  9.000E+00
</event>
<event>
      5  10001  2.02673E+08  1.62873E+01 -1.00000E+00  1.74034E-01
      -4    -1     0     0     0   513  0.000000000E+00  0.000000000E+00  4.533234101E+01  4.533234101E+01  0.000000000E+00  0.00000E+00  9.000E+00
      21    -1     0     0   511   515  0.000000000E+00  0.000000000E+00 -2.756497523E+02  2.756497523E+02  0.000000000E+00  0.00000E+00  9.000E+00
      -4     1     1     2     0   515  3.240569072E+01  2.175419918E+01  2.764259558E+01  4.785119710E+01  1.500000000E+00  0.00000E+00  9.000E+00
      21     1     1     2   512   513 -1.824418425E+01 -2.979784107E+01 -3.458113876E+01  4.915909630E+01  8.259061849E-07  0.00000E+00  9.000E+00
      21     1     1     2   511   512 -1.416150647E+01  8.043641885E+00 -2.233788681E+02  2.239717999E+02  3.814697266E-06  0.00000E+00  9.000E+00
</event>
<event>
      5  10001  2.02673E+08  1.79398E+01 -1.00000E+00  1.70317E-01
      21    -1     0     0   514   512  0.000000000E+00  0.000000000E+00  9.929284358E+02  9.929284358E+02  0.000000000E+00  0.00000E+00  9.000E+00
      21    -1     0     0   511   516  0.000000000E+00  0.000000000E+00 -1.208998694E+01  1.208998694E+01  0.000000000E+00  0.00000E+00  9.000E+00
      21     1     1     2   514   516  1.823245356E+01 -2.631514820E+01  1.074864220E+01  3.377044116E+01  5.840038640E-07  0.00000E+00  9.000E+00
      21     1     1     2   511   513 -2.830602361E+01  1.828129455E+01  7.757653140E+02  7.764967863E+02  0.000000000E+00  0.00000E+00  9.000E+00
      21     1     1     2   513   512  1.007357005E+01  8.033853648E+00  1.943244926E+02  1.947511953E+02  0.000000000E+00  0.00000E+00  9.000E+00
</event>
<event>
      5  10001  2.02673E+08  7.63745E+00 -1.00000E+00  2.10272E-01
      21    -1     0     0   511   514  0.000000000E+00  0.000000000E+00  9.440088686E+00  9.440088686E+00  0.000000000E+00  0.00000E+00  9.000E+00
       2    -1     0     0   512     0  0.000000000E+00  0.000000000E+00 -6.807427209E+02  6.807427209E+02  0.000000000E+00  0.00000E+00  9.000E+00
      21     1     1     2   511   513 -3.015849425E+01 -6.827770627E+00 -8.475142885E+01  9.021617327E+01  3.693564745E-06  0.00000E+00  9.000E+00
       2     1     1     2   513     0  3.716465663E+01  9.868120540E+00 -5.902356392E+02  5.914869485E+02  3.300000131E-01  0.00000E+00  9.000E+00
      21     1     1     2   512   514 -7.006162379E+00 -3.040349913E+00  3.684435836E+00  8.479687866E+00  5.075152625E-07  0.00000E+00  9.000E+00
</event>
<event>
      5  10001  2.02673E+08  1.80693E+01 -1.00000E+00  1.70047E-01
       1    -1     0     0   511     0  0.000000000E+00  0.000000000E+00  3.610564515E+02  3.610564515E+02  0.000000000E+00  0.00000E+00  9.000E+00
      21    -1     0     0   513   511  0.000000000E+00  0.000000000E+00 -9.444252767E+00  9.444252767E+00  0.000000000E+00  0.00000E+00  9.000E+00
      21     1     1     2   513   515 -1.931706928E+01  3.340496396E+01  3.843679815E+01  5.446492665E+01  1.430511475E-06  0.00000E+00  9.000E+00
       1     1     1     2   516     0  1.768040463E+01 -1.446901965E+01  1.448980158E+02  1.466884219E+02  3.300000131E-01  0.00000E+00  9.000E+00
      21     1     1     2   515   516  1.636664642E+00 -1.893594431E+01  1.682773848E+02  1.693473557E+02  0.000000000E+00  0.00000E+00  9.000E+00
</event>
<event>
      5  10001  2.02673E+08  7.66726E+00 -1.00000E+00  2.10045E-01
      21    -1     0     0   512   513  0.000000000E+00  0.000000000E+00  2.258599805E+02  2.258599805E+02  0.000000000E+00  0.00000E+00  9.000E+00
      21    -1     0     0   514   512  0.000000000E+00  0.000000000E+00 -7.981161737E+00  7.981161737E+00  0.000000000E+00  0.00000E+00  9.000E+00
      21     1     1     2   516   513  3.929346440E+01 -1.129338449E+01  1.323219069E+02  1.384940574E+02  2.697398305E-06  0.00000E+00  9.000E+00
      21     1     1     2   511   516 -2.437914440E+01  5.692999014E+00  4.112928362E+01  4.814946408E+01  1.261592536E-06  0.00000E+00  9.000E+00
      21     1     1     2   514   511 -1.491432000E+01  5.600385472E+00  4.442762826E+01  4.719762082E+01  0.000000000E+00  0.00000E+00  9.000E+00
</event>
<event>
      5  10001  2.02673E+08  1.48910E+01 -1.00000E+00  1.77635E-01
       4    -1     0     0   515     0  0.000000000E+00  0.000000000E+00  1.985113919E+02  1.985113919E+02  0.000000000E+00  0.00000E+00  9.000E+00
      21    -1     0     0   514   515  0.000000000E+00  0.000000000E+00 -3.668992820E+01  3.668992820E+01  0.000000000E+00  0.00000E+00  9.000E+00
      21     1     1     2   514   517  1.311057010E+01 -4.604277249E+01 -1.254494428E+01  4.948938850E+01  8.259061849E-07  0.00000E+00  9.000E+00
      21     1     1     2   517   511 -6.041859162E+00  3.293850042E+01  4.837701490E+01  5.883693094E+01  6.743495762E-07  0.00000E+00  9.000E+00
       4     1     1     2   511     0 -7.068710933E+00  1.310427207E+01  1.259893930E+02  1.268750006E+02  1.500000000E+00  0.00000E+00  9.000E+00
</event>
<event>
      5  10001  2.02673E+08  1.10146E+01 -1.00000E+00  1.90972E-01
      21    -1     0     0   511   512  0.000000000E+00  0.000000000E+00  2.982673618E+01  2.982673618E+01  0.000000000E+00  0.00000E+00  9.000E+00
       4    -1     0     0   514     0  0.000000000E+00  0.000000000E+00 -3.465660957E+02  3.465660957E+02  0.000000000E+00  0.00000E+00  9.000E+00
      21     1     1     2   513   512  3.313431516E+01 -2.266699977E+00  1.739474430E+01  3.749130431E+01  1.936921693E-06  0.00000E+00  9.000E+00
       4     1     1     2   511     0 -3.097155350E+01  1.306618352E+01 -3.152468698E+02  3.170375391E+02  1.500000000E+00  0.00000E+00  9.000E+00
      21     1     1     2   514   513 -2.162761654E+00 -1.079948354E+01 -1.888723404E+01  2.186398848E+01  2.384185791E-07  0.00000E+00  9.000E+00
</event>
<event>
      5  10001  2.02673E+08  7.43155E+00 -1.00000E+00  2.11877E-01
      21    -1     0     0   515   512  0.000000000E+00  0.000000000E+00  4.352734901E+01  4.352734901E+01  0.000000000E+00  0.00000E+00  9.000E+00
       1    -1     0     0   512     0  0.000000000E+00  0.000000000E+00 -3.271206632E+01  3.271206632E+01  0.000000000E+00  0.00000E+00  9.000E+00
      21     1     1     2   515   511 -2.026095273E+01 -1.377577007E+01  2.349809031E+01  3.394758157E+01  1.215700987E-06  0.00000E+00  9.000E+00
       1     1     1     2   514     0  2.840288482E+01  1.380706853E+01 -1.297623888E+01  3.414455569E+01  3.300000131E-01  0.00000E+00  9.000E+00
      21     1     1     2   511   514 -8.141932099E+00 -3.129846191E-02  2.934312662E-01  8.147278061E+00  4.842877388E-08  0.00000E+00  9.000E+00
</event>
<event>
      5  10001  2.02673E+08  9.97899E+00 -1.00000E+00  1.95804E-01
       2    -1     0     0   511     0  0.000000000E+00  0.000000000E+00  2.883662174E+02  2.883662174E+02  0.000000000E+00  0.00000E+00  9.000E+00
      21    -1     0     0   513   514  0.000000000E+00  0.000000000E+00 -8.726067894E+00  8.726067894E+00  0.000000000E+00  0.00000E+00  9.000E+00
      21     1     1     2   511   512 -2.035969397E+01 -1.246704860E+01  2.606191267E+01  3.534356705E+01  4.768371582E-07  0.00000E+00  9.000E+00
       2     1     1     2   513     0  3.783600648E+01  1.335525085E+01  2.224427733E+02  2.260327905E+02  3.300000131E-01  0.00000E+00  9.000E+00
      21     1     1     2   512   514 -1.747631250E+01 -8.882022450E-01  3.113546358E+01  3.571592774E+01  8.259061849E-07  0.00000E+00  9.000E+00
</event>
<event>
      5  10001  2.02673E+08  1.88008E+01 -1.00000E+00  1.68573E-01
       2    -1     0     0   515     0  0.000000000E+00  0.000000000E+00  8.630634023E+02  8.630634023E+02  0.000000000E+00  0.00000E+00  9.000E+00
      21    -1     0     0   512   516  0.000000000E+00  0.000000000E+00 -8.149739883E+00  8.149739883E+00  0.000000000E+00  0.00000E+00  9.000E+00
      21     1     1     2   515   516  3.860590043E+01 -1.558340196E+01  1.855008552E+02  1.901152946E+02  3.814697266E-06  0.00000E+00  9.000E+00
      21     1     1     2   512   513 -4.645623808E+01  3.266666971E+01  1.363629764E+02  1.477164673E+02  3.303624740E-06  0.00000E+00  9.000E+00
       2     1     1     2   513     0  7.850337651E+00 -1.708326774E+01  5.330498308E+02  5.333813803E+02  3.300000131E-01  0.00000E+00  9.000E+00
</event>
<event>
      5  10001  2.02673E+08  1.34518E+01 -1.00000E+00  1.81910E-01
      21    -1     0     0   512   513  0.000000000E+00  0.000000000E+00  7.238369768E+00  7.238369768E+00  0.000000000E+00  0.00000E+00  9.000E+00
       1    -1     0     0   513     0  0.000000000E+00  0.000000000E+00 -2.523337142E+02  2.523337142E+02  0.000000000E+00  0.00000E+00  9.000E+00
      21     1     1     2   512   514  8.130630257E+00  1.150339547E+01 -7.457404912E+00  1.593888778E+01  2.064765462E-07  0.00000E+00  9.000E+00
       1     1     1     2   511     0 -2.306889490E+01 -1.842029850E+01 -2.046223259E+02  2.067411098E+02  3.300000131E-01  0.00000E+00  9.000E+00
      21     1     1     2   514   511  1.493826464E+01  6.916903033E+00 -3.301561362E+01  3.689208643E+01  4.768371582E-07  0.00000E+00  9.000E+00
</event>
<event>
      5  10001  2.02673E+08  1.06987E+01 -1.00000E+00  1.92370E-01
      21    -1     0     0   515   511  0.000000000E+00  0.000000000E+00  1.131725120E+02  1.131725120E+02  0.000000000E+00  0.00000E+00  9.000E+00
      21    -1     0     0   513   516  0.000000000E+00  0.000000000E+00 -1.541259566E+01  1.541259566E+01  0.000000000E+00  0.00000E+00  9.000E+00
      21     1     1     2   515   516 -1.265347245E+01  2.895133782E+01  8.782207955E+01  9.333278086E+01  1.348699152E-06  0.00000E+00  9.000E+00
      21     1     1     2   513   512  1.493435988E+00 -1.729221026E+01  2.704226382E+00  1.756598210E+01  3.384893147E-07  0.00000E+00  9.000E+00
      21     1     1     2   512   511  1.116003646E+01 -1.165912755E+01  7.233610390E+00  1.768634469E+01  3.371747881E-07  0.00000E+00  9.000E+00
</event>
<event>
      5  10001  2.02673E+08  3.93418E+01 -1.00000E+00  1.45257E-01
       1    -1     0     0   515     0  0.000000000E+00  0.000000000E+00  3.407643233E+02  3.407643233E+02  0.000000000E+00  0.00000E+00  9.000E+00
      21    -1     0     0   514   515  0.000000000E+00  0.000000000E+00 -2.806655035E+02  2.806655035E+02  0.000000000E+00  0.00000E+00  9.000E+00
      21     1     1     2   514   513  5.841239434E+00 -9.619387040E+00 -5.946924493E+01  6.052473691E+01  1.168007728E-06  0.00000E+00  9.000E+00
       1     1     1     2   512     0  9.185952564E+00  5.962754914E+01  3.344098887E+02  3.398086357E+02  3.300000131E-01  0.00000E+00  9.000E+00
      21     1     1     2   513   512 -1.502719200E+01 -5.000816210E+01 -2.148418239E+02  2.210964542E+02  0.000000000E+00  0.00000E+00  9.000E+00
</event>
<event>
      5  10001  2.02673E+08  9.22590E+00 -1.00000E+00  1.99830E-01
      21    -1     0     0   514   512  0.000000000E+00  0.000000000E+00  2.538142987E+01  2.538142987E+01  0.000000000E+00  0.00000E+00  9.000E+00
      21    -1     0     0   513   516  0.000000000E+00  0.000000000E+00 -1.738498020E+02  1.738498020E+02  0.000000000E+00  0.00000E+00  9.000E+00
      21     1     1     2   511   516 -3.145191059E+01  1.859163659E+01 -9.547356832E+01  1.022256029E+02  1.348699152E-06  0.00000E+00  9.000E+00
      21     1     1     2   513   512  2.930526092E+01 -9.618945110E+00 -7.064778398E+01  7.708717016E+01  1.907348633E-06  0.00000E+00  9.000E+00
      21     1     1     2   514   511  2.146649670E+00 -8.972691485E+00  1.765298013E+01  1.991845890E+01  4.768371582E-07  0.00000E+00  9.000E+00
</event>
<event>
      5  10001  2.02673E+08  4.76747E+00 -1.00000E+00  2.46619E-01
      21    -1     0     0   515   512  0.000000000E+00  0.000000000E+00  3.729872604E+01  3.729872604E+01  0.000000000E+00  0.00000E+00  9.000E+00
      21    -1     0     0   513   516  0.000000000E+00  0.000000000E+00 -4.929151757E+01  4.929151757E+01  0.000000000E+00  0.00000E+00  9.000E+00
      21     1     1     2   513   512  3.541765313E+01 -1.118054488E+01  1.254715178E+01  3.920262434E+01  1.118282261E-06  0.00000E+00  9.000E+00
       3     1     1     2   515     0 -3.469053895E+01  6.470105116E+00 -1.906894695E+01  4.011446735E+01  5.000000000E-01  0.00000E+00  9.000E+00
      -3     1     1     2     0   516 -7.271141807E-01  4.710439768E+00 -5.470996357E+00  7.273151929E+00  5.000000000E-01  0.00000E+00  9.000E+00
</event>
<event>
      5  10001  2.02673E+08  4.00649E+01 -1.00000E+00  1.44765E-01
       1    -1     0     0   515     0  0.000000000E+00  0.000000000E+00  2.811298365E+02  2.811298365E+02  0.000000000E+00  0.00000E+00  9.000E+00
      21    -1     0     0   514   515  0.000000000E+00  0.000000000E+00 -2.642359654E+01  2.642359654E+01  0.000000000E+00  0.00000E+00  9.000E+00
      21     1     1     2   514   511  7.029947089E-01  3.097537151E+01 -1.075904546E+01  3.279824540E+01  8.429369702E-07  0.00000E+00  9.000E+00
       1     1     1     2   512     0 -2.059490526E+01 -1.167106653E+01  2.216321508E+02  2.228929857E+02  3.300000131E-01  0.00000E+00  9.000E+00
      21     1     1     2   511   512  1.989191055E+01 -1.930430498E+01  4.383313461E+01  5.186220190E+01  8.259061849E-07  0.00000E+00  9.000E+00
</event>
<event>
      5  10001  2.02673E+08  2.97569E+01 -1.00000E+00  1.53250E-01
       2    -1     0     0   513     0  0.000000000E+00  0.000000000E+00  6.171142985E+01  6.171142985E+01  0.000000000E+00  0.00000E+00  9.000E+00
       2    -1     0     0   511     0  0.000000000E+00  0.000000000E+00 -1.859735446E+02  1.859735446E+02  0.000000000E+00  0.00000E+00  9.000E+00
       2     1     1     2   511     0 -1.030345715E+01  4.360836025E+01  4.911422204E+01  6.648432913E+01  3.300000131E-01  0.00000E+00  9.000E+00
      21     1     1     2   513   514 -4.513780633E+00 -2.976468705E+01 -7.621648347E+01  8.194670929E+01  1.651812370E-06  0.00000E+00  9.000E+00
       2     1     1     2   514     0  1.481723779E+01 -1.384367320E+01 -9.715985334E+01  9.925393607E+01  3.300000131E-01  0.00000E+00  9.000E+00
</event>
<event>
      5  10001  2.02673E+08  2.41259E+01 -1.00000E+00  1.59879E-01
       2    -1     0     0   512     0  0.000000000E+00  0.000000000E+00  4.235172499E+01  4.235172499E+01  0.000000000E+00  0.00000E+00  9.000E+00
      21    -1     0     0   511   515  0.000000000E+00  0.000000000E+00 -7.221973720E+01  7.221973720E+01  0.000000000E+00  0.00000E+00  9.000E+00
      21     1     1     2   512   515 -2.738287343E+01 -2.362846488E+01 -1.323939069E+01  3.851503052E+01  9.536743164E-07  0.00000E+00  9.000E+00
      21     1     1     2   511   516  5.368721026E+00  3.349850812E+01 -3.265707007E+01  4.708988678E+01  8.259061849E-07  0.00000E+00  9.000E+00
       2     1     1     2   516     0  2.201415241E+01 -9.870043234E+00  1.602844856E+01  2.896654489E+01  3.300000131E-01  0.00000E+00  9.000E+00
</event>
<event>
      5  10001  2.02673E+08  1.73213E+01 -1.00000E+00  1.71648E-01
      21    -1     0     0   513   511  0.000000000E+00  0.000000000E+00  8.935222076E+01  8.935222076E+01  0.000000000E+00  0.00000E+00  9.000E+00
      21    -1     0     0   517   514  0.000000000E+00  0.000000000E+00 -3.744608699E+01  3.744608699E+01  0.000000000E+00  0.00000E+00  9.000E+00
      21     1     1     2   513   514  3.689237547E+01  2.508884810E+00  6.417470555E+01  7.406574582E+01  9.536743164E-07  0.00000E+00  9.000E+00
      -4     1     1     2     0   511 -2.695335415E+01  1.098471061E+00 -2.451637197E+01  3.648276899E+01  1.500000000E+00  0.00000E+00  9.000E+00
       4     1     1     2   517     0 -9.939021325E+00 -3.607355870E+00  1.224780019E+01  1.624979294E+01  1.500000000E+00  0.00000E+00  9.000E+00
</event>
<event>
      5  10001  2.02673E+08  7.64862E+00 -1.00000E+00  2.10186E-01
      21    -1     0     0   512   514  0.000000000E+00  0.000000000E+00  3.617171151E+01  3.617171151E+01  0.000000000E+00  0.00000E+00  9.000E+00
      21    -1     0     0   516   515  0.000000000E+00  0.000000000E+00 -4.169562273E+01  4.169562273E+01  0.000000000E+00  0.00000E+00  9.000E+00
      21     1     1     2   512   515  2.724905087E+01 -2.185058567E+01 -1.659439529E+01  3.866953352E+01  8.596304120E-07  0.00000E+00  9.000E+00
      21     1     1     2   511   514 -2.586786591E+01  1.423711843E+01  6.579277391E+00  3.025109781E+01  4.298152060E-07  0.00000E+00  9.000E+00
      21     1     1     2   516   511 -1.381184957E+00  7.613467246E+00  4.491206680E+00  8.946702903E+00  2.384185791E-07  0.00000E+00  9.000E+00
</event>
<event>
      5  10001  2.02673E+08  9.35761E+00 -1.00000E+00  1.99090E-01
      21    -1     0     0   513   511  0.000000000E+00  0.000000000E+00  2.067983532E+01  2.067983532E+01  0.000000000E+00  0.00000E+00  9.000E+00
      21    -1     0     0   512   517  0.000000000E+00  0.000000000E+00 -6.732527125E+02  6.732527125E+02  0.000000000E+00  0.00000E+00  9.000E+00
      21     1     1     2   513   517  1.673089114E+01 -2.170232804E+01  1.004668036E+01  2.918646171E+01  5.960464478E-07  0.00000E+00  9.000E+00
      21     1     1     2   516   511 -1.860408893E+01  3.087053133E+01 -3.242377873E+02  3.262349530E+02  5.394796609E-06  0.00000E+00  9.000E+00
      21     1     1     2   512   516  1.873197795E+00 -9.168203288E+00 -3.383817702E+02  3.385111331E+02  3.814697266E-06  0.00000E+00  9.000E+00
</event>
<event>
      5  10001  2.02673E+08  9.86374E+00 -1.00000E+00  1.96390E-01
       1    -1     0     0   513     0  0.000000000E+00  0.000000000E+00  2.697495989E+01  2.697495989E+01  0.000000000E+00  0.00000E+00  9.000E+00
       2    -1     0     0   512     0  0.000000000E+00  0.000000000E+00 -7.393879405E+01  7.393879405E+01  0.000000000E+00  0.00000E+00  9.000E+00
       1     1     1     2   512     0 -1.244020985E+01 -3.247090919E+01  3.918037923E+00  3.499398071E+01  3.300000131E-01  0.00000E+00  9.000E+00
       2     1     1     2   511     0  1.551561941E+01  2.683507340E+01 -5.078514675E+01  5.949870285E+01  3.300000131E-01  0.00000E+00  9.000E+00
      21     1     1     2   513   511 -3.075409555E+00  5.635835788E+00 -9.672532710E-02  6.421070374E+00  2.225100958E-07  0.00000E+00  9.000E+00
</event>
<event>
      5  10001  2.02673E+08  1.79952E+01 -1.00000E+00  1.70201E-01
      21    -1     0     0   514   511  0.000000000E+00  0.000000000E+00  6.376244755E+01  6.376244755E+01  0.000000000E+00  0.00000E+00  9.000E+00
      21    -1     0     0   512   515  0.000000000E+00  0.000000000E+00 -2.182304025E+01  2.182304025E+01  0.000000000E+00  0.00000E+00  9.000E+00
      21     1     1     2   514   515  2.734503107E+01  8.176945446E+00  3.598742728E+01  4.593155868E+01  8.259061849E-07  0.00000E+00  9.000E+00
      21     1     1     2   516   511 -1.715455526E+01 -5.009428176E+00 -9.987128455E+00  2.047231965E+01  2.665600750E-07  0.00000E+00  9.000E+00
      21     1     1     2   512   516 -1.019047581E+01 -3.167517270E+00  1.593910848E+01  1.918160948E+01  0.000000000E+00  0.00000E+00  9.000E+00
</event>
<event>
      5  10001  2.02673E+08  6.71096E+00 -1.00000E+00  2.18102E-01
      21    -1     0     0   514   512  0.000000000E+00  0.000000000E+00  1.387718800E+01  1.387718800E+01  0.000000000E+00  0.00000E+00  9.000E+00
      -2    -1     0     0     0   513  0.000000000E+00  0.000000000E+00 -2.677534371E+02  2.677534371E+02  0.000000000E+00  0.00000E+00  9.000E+00
      -2     1     1     2     0   511  2.887874367E+01  1.895520007E+01 -2.359261764E+02  2.384419239E+02  3.300000131E-01  0.00000E+00  9.000E+00
      21     1     1     2   511   512 -2.968336475E+01 -1.229270152E+01 -1.225163640E+01  3.438481130E+01  1.066240300E-06  0.00000E+00  9.000E+00
      21     1     1     2   514   513  8.046210757E-01 -6.662498546E+00 -5.698436304E+00  8.803889951E+00  1.192092896E-07  0.00000E+00  9.000E+00
</event>
<event>
      5  10001  2.02673E+08  1.64874E+01 -1.00000E+00  1.73555E-01
      21    -1     0     0   515   511  0.000000000E+00  0.000000000E+00  1.744795563E+02  1.744795563E+02  0.000000000E+00  0.00000E+00  9.000E+00
      21    -1     0     0   517   516  0.000000000E+00  0.000000000E+00 -2.326603125E+01  2.326603125E+01  0.000000000E+00  0.00000E+00  9.000E+00
      21     1     1     2   515   516  4.346712168E+01 -3.944874478E+01  8.404055329E+01  1.025105298E+02  9.536743164E-07  0.00000E+00  9.000E+00
      21     1     1     2   512   511 -4.678857286E+01  2.654609424E+01  4.950683178E+01  7.310808480E+01  1.168007728E-06  0.00000E+00  9.000E+00
      21     1     1     2   517   512  3.321451175E+00  1.290265054E+01  1.766614003E+01  2.212697296E+01  2.384185791E-07  0.00000E+00  9.000E+00
</event>
<event>
      5  10001  2.02673E+08  1.27987E+01 -1.00000E+00  1.84082E-01
       2    -1     0     0   514     0  0.000000000E+00  0.000000000E+00  1.291901808E+03  1.291901808E+03  0.000000000E+00  0.00000E+00  9.000E+00
      21    -1     0     0   512   511  0.000000000E+00  0.000000000E+00 -1.511991195E+00  1.511991195E+00  0.000000000E+00  0.00000E+00  9.000E+00
      21     1     1     2   512   513 -2.842771539E+01  2.076121835E+01  3.086416086E+02  3.106425691E+02  3.814697266E-06  0.00000E+00  9.000E+00
       2     1     1     2   513     0  2.895292025E+01 -7.973523857E+00  8.051181491E+02  8.056780943E+02  3.300000131E-01  0.00000E+00  9.000E+00
      21     1     1     2   514   511 -5.252048574E-01 -1.278769449E+01  1.766300588E+02  1.770931355E+02  1.907348633E-06  0.00000E+00  9.000E+00
</event>
<event>
      5  10001  2.02673E+08  3.51779E+01 -1.00000E+00  1.48354E-01
      21    -1     0     0   515   512  0.000000000E+00  0.000000000E+00  1.313352746E+02  1.313352746E+02  0.000000000E+00  0.00000E+00  9.000E+00
      21    -1     0     0   516   515  0.000000000E+00  0.000000000E+00 -6.566657376E+01  6.566657376E+01  0.000000000E+00  0.00000E+00  9.000E+00
      21     1     1     2   516   511 -2.653680884E+01 -1.773454577E+01 -4.704508321E+01  5.685029632E+01  1.348699152E-06  0.00000E+00  9.000E+00
      21     1     1     2   513   512  1.701302892E+01  2.329520188E+01  1.222283693E+02  1.255861611E+02  2.697398305E-06  0.00000E+00  9.000E+00
      21     1     1     2   511   513  9.523779916E+00 -5.560656119E+00 -9.514585288E+00  1.456539095E+01  3.153981341E-07  0.00000E+00  9.000E+00
</event>
<event>
      5  10001  2.02673E+08  9.01497E+00 -1.00000E+00  2.01050E-01
      21    -1     0     0   512   513  0.000000000E+00  0.000000000E+00  3.866468910E+01  3.866468910E+01  0.000000000E+00  0.00000E+00  9.000E+00
      21    -1     0     0   511   517  0.000000000E+00  0.000000000E+00 -5.205121184E+01  5.205121184E+01  0.000000000E+00  0.00000E+00  9.000E+00
      21     1     1     2   514   517 -7.811911065E+00 -3.429006776E+01 -4.047663527E+00  3.540082317E+01  7.996802250E-07  0.00000E+00  9.000E+00
      21     1     1     2   511   513  1.318424501E+01  2.705075628E+01 -2.373689574E+01  3.832763952E+01  6.743495762E-07  0.00000E+00  9.000E+00
      21     1     1     2   512   514 -5.372333947E+00  7.239311481E+00  1.439803652E+01  1.698743826E+01  2.384185791E-07  0.00000E+00  9.000E+00
</event>
<event>
      5  10001  2.02673E+08  2.16564E+01 -1.00000E+00  1.63527E-01
      21    -1     0     0   515   511  0.000000000E+00  0.000000000E+00  7.804355667E+01  7.804355667E+01  0.000000000E+00  0.00000E+00  9.000E+00
      21    -1     0     0   516   514  0.000000000E+00  0.000000000E+00 -4.859711182E+01  4.859711182E+01  0.000000000E+00  0.00000E+00  9.000E+00
      21     1     1     2   515   514  3.169364462E+01  8.210683552E+00  6.284512772E+01  7.086192569E+01  1.168007728E-06  0.00000E+00  9.000E+00
      21     1     1     2   513   511 -1.232840463E+01 -1.412125423E+01 -2.981278497E+01  3.521649513E+01  3.371747881E-07  0.00000E+00  9.000E+00
      21     1     1     2   516   513 -1.936523999E+01  5.910570673E+00 -3.585897899E+00  2.056224767E+01  3.397987560E-07  0.00000E+00  9.000E+00
</event>
<event>
      5  10001  2.02673E+08  2.12519E+01 -1.00000E+00  1.64182E-01
      21    -1     0     0   512   511  0.000000000E+00  0.000000000E+00  4.641670620E+00  4.641670620E+00  0.000000000E+00  0.00000E+00  9.000E+00
       2    -1     0     0   513     0  0.000000000E+00  0.000000000E+00 -6.027910039E+02  6.027910039E+02  0.000000000E+00  0.00000E+00  9.000E+00
      21     1     1     2   514   511 -6.095860279E+00  1.191267651E+01 -1.651798104E+01  2.125829419E+01  1.348699152E-06  0.00000E+00  9.000E+00
       2     1     1     2   512     0  1.925390961E+01 -3.390200372E+01 -4.711331708E+02  4.727437281E+02  3.300000131E-01  0.00000E+00  9.000E+00
      21     1     1     2   513   514 -1.315804934E+01  2.198932722E+01 -1.104981815E+02  1.134306523E+02  0.000000000E+00  0.00000E+00  9.000E+00
</event>
<event>
      5  10001  2.02673E+08  6.53390E+00 -1.00000E+00  2.19797E-01
      21    -1     0     0   514   513  0.000000000E+00  0.000000000E+00  3.484149469E+01  3.484149469E+01  0.000000000E+00  0.00000E+00  9.000E+00
      -2    -1     0     0     0   514  0.000000000E+00  0.000000000E+00 -1.808228003E+02  1.808228003E+02  0.000000000E+00  0.00000E+00  9.000E+00
      -2     1     1     2     0   515  3.268805796E+01  4.353371933E+00 -1.693805611E+02  1.725611323E+02  3.300000131E-01  0.00000E+00  9.000E+00
      21     1     1     2   511   513 -3.221302233E+01 -1.148547793E+00  1.831220061E+01  3.707201992E+01  7.907449699E-07  0.00000E+00  9.000E+00
      21     1     1     2   515   511 -4.750356316E-01 -3.204824141E+00  5.087054871E+00  6.031142834E+00  1.685873940E-07  0.00000E+00  9.000E+00
</event>
<event>
      5  10001  2.02673E+08  2.04885E+01 -1.00000E+00  1.65468E-01
       4    -1     0     0   512     0  0.000000000E+00  0.000000000E+00  2.890976951E+01  2.890976951E+01  0.000000000E+00  0.00000E+00  9.000E+00
       2    -1     0     0   513     0  0.000000000E+00  0.000000000E+00 -1.120981374E+02  1.120981374E+02  0.000000000E+00  0.00000E+00  9.000E+00
       2     1     1     2   514     0  2.323864080E+01  3.619646563E+01 -8.081164345E+01  9.154697793E+01  3.300000131E-01  0.00000E+00  9.000E+00
       4     1     1     2   513     0 -1.688995827E+01 -3.815773122E+01 -5.504445356E+00  4.211688570E+01  1.500000000E+00  0.00000E+00  9.000E+00
      21     1     1     2   512   514 -6.348682529E+00  1.961265591E+00  3.127720971E+00  7.344043236E+00  1.192092896E-07  0.00000E+00  9.000E+00
</event>
</LesHouchesEvents>
 #Random number generator exit values:     54217137      41442759             0
