<LesHouchesEvents version="1.0">
<!--
file generated with POWHEG-BOX version 1.0
Input file powheg.input contained:
numevts 500            ! number of events to be generated
ih1  1               ! hadron 1 (1 for protons, -1 for antiprotons)
ih2  1               ! hadron 2 (1 for protons, -1 for antiprotons)
ebeam1 2510d0        ! energy of beam 1
ebeam2 2510d0        ! energy of beam 2
 
bornktmin 20d0       ! (default 0d0) Generation cut: minimum kt in underlying Born
#bornsuppfact 100d0  ! (default 0d0) Mass parameter for Born suppression factor.
                     ! If < 0 suppfact = 1.
 
 
! To be set only if using internal (mlm) pdfs
! 131 cteq6m
ndns1 131            ! pdf set for hadron 1 (mlm numbering)
ndns2 131            ! pdf set for hadron 2 (mlm numbering)
 
! To be set only if using LHA pdfs
! 10050 cteq6m
! lhans1  10050      ! pdf set for hadron 1 (LHA numbering)
! lhans2  10050      ! pdf set for hadron 2 (LHA numbering)	
 
! To be set only if using different pdf sets for the two incoming hadrons
#QCDLambda5  0.25    ! for not equal pdf sets
 
#renscfact  1d0      ! (default 1d0) ren scale factor: muren  = muref * renscfact
#facscfact  1d0      ! (default 1d0) fac scale factor: mufact = muref * facscfact
 
! Parameters to allow or not the use of stored data
use-old-grid    1    ! If 1 use old grid if file pwggrids.dat is present (<> 1 regenerate)
use-old-ubound  1    ! If 1 use norm of upper bounding function stored
                     ! in pwgubound.dat, if present; <> 1 regenerate
 
! A typical call uses 1/1400 seconds (1400 calls per second)
ncall1 20000         ! No. calls for the construction of the importance sampling grid
itmx1 5              ! No. iterations for grid: total 100000 calls ~ 70 seconds
ncall2 20000         ! No. calls for the computation of the upper bounding
                     ! envelope for the generation of radiation
itmx2 5              ! No. iterations for the above
 
! Notice: the total number of calls is ncall2*itmx2*foldcsi*foldy*foldphi
! these folding numbers yield a negative fraction of 0.5% with bornktmin=10 GeV.
! With these settings: ncall2*itmx2*foldcsi*foldy*foldphi=5M, 60 minutes
foldcsi 5            ! No. folds on csi integration
foldy   5            ! No. folds on  y  integration
foldphi 2            ! No. folds on phi integration
 
nubound 500000       ! No. calls to set up the upper bounding norms for radiation.
                     ! This is performed using only the Born cross section (fast)
 
! OPTIONAL PARAMETERS
 
withnegweights 1     ! (default 0). If 1 use negative weights.
#bornonly 1          ! (default 0). If 1 compute underlying Born using LO
                     ! cross section only.
 
#ptsqmin    0.8      ! (default 0.8 GeV) minimum pt for generation of radiation
#charmthr   1.5      ! (default 1.5 GeV) charm treshold for gluon splitting
#bottomthr  5.0      ! (default 5.0 GeV) bottom treshold for gluon splitting
#testplots  1        ! (default 0, do not) do NLO and PWHG distributions
#charmthrpdf  1.5    ! (default 1.5 GeV) pdf charm treshold
#bottomthrpdf 5.0    ! (default 5.0 GeV) pdf bottom treshold
 
#xupbound 2d0        ! increase upper bound for radiation generation
 
#iseed    5421       ! Start the random number generator with seed iseed
#rand1     0         ! skipping  rand2*100000000+rand1 numbers (see RM48
#rand2     0         ! short writeup in CERNLIB).
#manyseeds 1         ! Used to perform multiple runs with different random
                     ! seeds in the same directory.
                     ! If set to 1, the program asks for an integer j;
                     ! The file pwgseeds.dat at line j is read, and the
                     ! integer at line j is used to initialize the random
                     ! sequence for the generation of the event.
                     ! The event file is called pwgevents-'j'.lhe
 
doublefsr 1          ! Default 0; if 1 use new mechanism to generate regions
                     ! such that the emitted harder than the
                     ! emitter in FSR is suppressed. If doublefsr=0 this is
                     ! only the case for emitted gluons (old behaviour). If
                     ! 1 it is also applied to emitted quarks.
                     ! If set, it strongly reduces spikes on showered output.
 
 
 
#par_diexp 4         ! default is 2. With 4 there is a stronger separation
#par_dijexp 4        ! of regions, it may help to reduce spikes when generating
#par_2gsupp 4        ! weighted events.
End of powheg.input content
PDF package: mlm
 Random number generator initialized with:     54217137             0             0
-->
<init>
     2212     2212  2.51000E+03  2.51000E+03     -1     -1     -1     -1     -4      1
  2.02371E+08  3.79738E+05  1.00000E+00  10001
</init>
<event>
      5  10001  2.02673E+08  2.06951E+01 -1.00000E+00  1.65113E-01
      21    -1     0     0   511   514  0.000000000E+00  0.000000000E+00  3.168062819E+01  3.168062819E+01  0.000000000E+00  0.00000E+00  9.000E+00
      21    -1     0     0   512   511  0.000000000E+00  0.000000000E+00 -1.805843076E+02  1.805843076E+02  0.000000000E+00  0.00000E+00  9.000E+00
      21     1     1     2   512   513 -3.171973866E+01  1.478016067E+01 -1.576232072E+02  1.614610492E+02  1.907348633E-06  0.00000E+00  9.000E+00
      21     1     1     2   513   515  1.813132794E+01 -1.034565444E+00  2.110857488E+01  2.784577727E+01  1.599360450E-06  0.00000E+00  9.000E+00
      21     1     1     2   515   514  1.358841072E+01 -1.374559523E+01 -1.238904709E+01  2.295810928E+01  5.057621821E-07  0.00000E+00  9.000E+00
</event>
<event>
      5  10001  2.02673E+08  2.07003E+01 -1.00000E+00  1.65104E-01
      21    -1     0     0   516   513  0.000000000E+00  0.000000000E+00  1.173338359E+01  1.173338359E+01  0.000000000E+00  0.00000E+00  9.000E+00
      21    -1     0     0   514   516  0.000000000E+00  0.000000000E+00 -3.468297374E+01  3.468297374E+01  0.000000000E+00  0.00000E+00  9.000E+00
      21     1     1     2   514   512  1.509283373E+01 -5.303642731E-01 -9.475260748E+00  1.782850197E+01  1.685873940E-07  0.00000E+00  9.000E+00
      21     1     1     2   512   511 -6.458394267E+00  8.889785359E+00 -6.424779081E-01  1.100690320E+01  2.787751993E-08  0.00000E+00  9.000E+00
      21     1     1     2   511   513 -8.634439466E+00 -8.359421086E+00 -1.283185150E+01  1.758095215E+01  1.685873940E-07  0.00000E+00  9.000E+00
</event>
<event>
      5  10001  2.02673E+08  1.58215E+01 -1.00000E+00  1.75183E-01
       1    -1     0     0   514     0  0.000000000E+00  0.000000000E+00  1.052299586E+00  1.052299586E+00  0.000000000E+00  0.00000E+00  9.000E+00
       2    -1     0     0   511     0  0.000000000E+00  0.000000000E+00 -6.245485421E+02  6.245485421E+02  0.000000000E+00  0.00000E+00  9.000E+00
       1     1     1     2   511     0  8.957771585E+00  1.866995810E+01 -1.497225042E+02  1.511480935E+02  3.300000131E-01  0.00000E+00  9.000E+00
      21     1     1     2   514   512 -1.018663339E+01 -7.674424791E+00 -1.701595384E+02  1.706368448E+02  1.907348633E-06  0.00000E+00  9.000E+00
       2     1     1     2   512     0  1.228861809E+00 -1.099553331E+01 -3.036142000E+02  3.038159034E+02  3.300000131E-01  0.00000E+00  9.000E+00
</event>
<event>
      5  10001  2.02673E+08  1.38466E+01 -1.00000E+00  1.80671E-01
      21    -1     0     0   513   516  0.000000000E+00  0.000000000E+00  9.382357609E+00  9.382357609E+00  0.000000000E+00  0.00000E+00  9.000E+00
      21    -1     0     0   511   515  0.000000000E+00  0.000000000E+00 -1.376159725E+02  1.376159725E+02  0.000000000E+00  0.00000E+00  9.000E+00
      21     1     1     2   513   515  2.588907984E+01 -1.293201616E+01 -8.777308414E+01  9.242075414E+01  1.348699152E-06  0.00000E+00  9.000E+00
      21     1     1     2   511   514 -2.009608870E+01  5.221006573E+00 -1.083212752E+01  2.341893843E+01  9.757700887E-07  0.00000E+00  9.000E+00
      21     1     1     2   514   516 -5.792991136E+00  7.711009590E+00 -2.962840327E+01  3.115863758E+01  0.000000000E+00  0.00000E+00  9.000E+00
</event>
<event>
      5  10001  2.02673E+08  8.42429E+00 -1.00000E+00  2.04715E-01
      -2    -1     0     0     0   512  0.000000000E+00  0.000000000E+00  3.233849761E+02  3.233849761E+02  0.000000000E+00  0.00000E+00  9.000E+00
      21    -1     0     0   513   514  0.000000000E+00  0.000000000E+00 -8.707338043E+00  8.707338043E+00  0.000000000E+00  0.00000E+00  9.000E+00
      -2     1     1     2     0   514 -2.763606712E+01 -3.228977809E+01  6.435234343E+01  7.712143009E+01  3.300000131E-01  0.00000E+00  9.000E+00
      21     1     1     2   511   512  2.373629787E+01  2.934172643E+01  2.443647855E+02  2.472620010E+02  3.814697266E-06  0.00000E+00  9.000E+00
      21     1     1     2   513   511  3.899769252E+00  2.948051661E+00  5.960509128E+00  7.708883050E+00  0.000000000E+00  0.00000E+00  9.000E+00
</event>
<event>
      5  10001  2.02673E+08  1.49786E+01 -1.00000E+00  1.77394E-01
      -3    -1     0     0     0   512  0.000000000E+00  0.000000000E+00  3.662025161E+01  3.662025161E+01  0.000000000E+00  0.00000E+00  9.000E+00
       1    -1     0     0   512     0  0.000000000E+00  0.000000000E+00 -3.112725679E+02  3.112725679E+02  0.000000000E+00  0.00000E+00  9.000E+00
      -3     1     1     2     0   513 -2.474299262E+01 -7.540146975E+00  3.122171790E+01  4.054769005E+01  5.000000000E-01  0.00000E+00  9.000E+00
      21     1     1     2   513   514  7.687853306E+00  9.623053729E+00 -1.570325600E+02  1.575148601E+02  0.000000000E+00  0.00000E+00  9.000E+00
       1     1     1     2   514     0  1.705513931E+01 -2.082906754E+00 -1.488414742E+02  1.498302693E+02  3.300000131E-01  0.00000E+00  9.000E+00
</event>
<event>
      5  10001  2.02673E+08  9.58439E+00 -1.00000E+00  1.97853E-01
      21    -1     0     0   511   514  0.000000000E+00  0.000000000E+00  4.976113027E+00  4.976113027E+00  0.000000000E+00  0.00000E+00  9.000E+00
      21    -1     0     0   514   512  0.000000000E+00  0.000000000E+00 -2.488317254E+02  2.488317254E+02  0.000000000E+00  0.00000E+00  9.000E+00
      -4     1     1     2     0   515  2.905469328E+01 -9.649288642E+00 -9.066905212E+01  9.571003597E+01  1.500000000E+00  0.00000E+00  9.000E+00
       4     1     1     2   511     0 -2.018609852E+01  1.325430836E+01 -6.437381778E+01  6.877058731E+01  1.500000000E+00  0.00000E+00  9.000E+00
      21     1     1     2   515   512 -8.868594759E+00 -3.605019716E+00 -8.881274248E+01  8.932721515E+01  1.348699152E-06  0.00000E+00  9.000E+00
</event>
<event>
      5  10001  2.02673E+08  1.60730E+01 -1.00000E+00  1.74557E-01
      -2    -1     0     0     0   513  0.000000000E+00  0.000000000E+00  3.032897175E+00  3.032897175E+00  0.000000000E+00  0.00000E+00  9.000E+00
      21    -1     0     0   513   512  0.000000000E+00  0.000000000E+00 -2.818922448E+02  2.818922448E+02  0.000000000E+00  0.00000E+00  9.000E+00
      -2     1     1     2     0   514  5.084081189E+00  2.148809911E+01 -5.084902731E+01  5.543752126E+01  3.300000131E-01  0.00000E+00  9.000E+00
      21     1     1     2   511   512 -7.976794014E+00 -9.619825685E+00 -7.955298605E+01  8.052855319E+01  1.651812370E-06  0.00000E+00  9.000E+00
      21     1     1     2   514   511  2.892712826E+00 -1.186827343E+01 -1.484573343E+02  1.489590675E+02  2.697398305E-06  0.00000E+00  9.000E+00
</event>
<event>
      5  10001  2.02673E+08  8.35957E+00 -1.00000E+00  2.05141E-01
       1    -1     0     0   512     0  0.000000000E+00  0.000000000E+00  4.507361523E+01  4.507361523E+01  0.000000000E+00  0.00000E+00  9.000E+00
      21    -1     0     0   511   513  0.000000000E+00  0.000000000E+00 -1.976214960E+01  1.976214960E+01  0.000000000E+00  0.00000E+00  9.000E+00
      21     1     1     2   511   515 -1.049050947E+00 -1.958757397E+01  8.260636643E+00  2.128407103E+01  4.129530925E-07  0.00000E+00  9.000E+00
       1     1     1     2   515     0 -4.080185104E+00  2.618824173E+01  2.145671831E+01  3.410236907E+01  3.300000131E-01  0.00000E+00  9.000E+00
      21     1     1     2   512   513  5.129236051E+00 -6.600667757E+00 -4.405889321E+00  9.449324738E+00  1.685873940E-07  0.00000E+00  9.000E+00
</event>
<event>
      5  10001  2.02673E+08  1.51914E+01 -1.00000E+00  1.76819E-01
       1    -1     0     0   513     0  0.000000000E+00  0.000000000E+00  2.200743950E+02  2.200743950E+02  0.000000000E+00  0.00000E+00  9.000E+00
       1    -1     0     0   514     0  0.000000000E+00  0.000000000E+00 -1.642146186E+02  1.642146186E+02  0.000000000E+00  0.00000E+00  9.000E+00
      21     1     1     2   514   512  1.478241870E+01  2.370654389E+01  3.400271805E+00  2.814395093E+01  9.629425062E-07  0.00000E+00  9.000E+00
       1     1     1     2   512     0 -2.441385279E+01 -1.195857295E+01  2.030136776E+02  2.048260380E+02  3.300000131E-01  0.00000E+00  9.000E+00
       1     1     1     2   513     0  9.631434093E+00 -1.174797094E+01 -1.505541729E+02  1.513190246E+02  3.300000131E-01  0.00000E+00  9.000E+00
</event>
<event>
      5  10001  2.02673E+08  4.87851E+00 -1.00000E+00  2.44587E-01
      21    -1     0     0   511   512  0.000000000E+00  0.000000000E+00  3.324183763E+02  3.324183763E+02  0.000000000E+00  0.00000E+00  9.000E+00
      21    -1     0     0   516   515  0.000000000E+00  0.000000000E+00 -1.945197408E+01  1.945197408E+01  0.000000000E+00  0.00000E+00  9.000E+00
      21     1     1     2   511   515  1.809001408E+01  8.353077334E+00  3.209127092E+02  3.215306975E+02  5.394796609E-06  0.00000E+00  9.000E+00
      21     1     1     2   514   512 -1.842846463E+01 -1.321983538E+01 -2.176726359E+00  2.278399644E+01  1.000932194E-06  0.00000E+00  9.000E+00
      21     1     1     2   516   514  3.384505519E-01  4.866758049E+00 -5.769580652E+00  7.555656397E+00  1.460009660E-07  0.00000E+00  9.000E+00
</event>
<event>
      5  10001  2.02673E+08  4.41342E+00 -1.00000E+00  2.53695E-01
      21    -1     0     0   513   514  0.000000000E+00  0.000000000E+00  2.867824728E+00  2.867824728E+00  0.000000000E+00  0.00000E+00  9.000E+00
       2    -1     0     0   516     0  0.000000000E+00  0.000000000E+00 -2.479266435E+02  2.479266435E+02  0.000000000E+00  0.00000E+00  9.000E+00
      21     1     1     2   516   517  2.048411127E+01  3.869168712E+00 -1.408053727E+02  1.423401639E+02  1.907348633E-06  0.00000E+00  9.000E+00
      21     1     1     2   517   514 -1.960414677E+01 -8.193239900E+00 -5.435817856E+01  5.836320182E+01  1.651812370E-06  0.00000E+00  9.000E+00
       2     1     1     2   513     0 -8.799644975E-01  4.324071188E+00 -4.989526752E+01  5.009110250E+01  3.300000131E-01  0.00000E+00  9.000E+00
</event>
<event>
      5  10001  2.02673E+08  3.17272E+00 -1.00000E+00  2.89548E-01
      21    -1     0     0   511   516  0.000000000E+00  0.000000000E+00  1.008879830E+01  1.008879830E+01  0.000000000E+00  0.00000E+00  9.000E+00
      21    -1     0     0   512   511  0.000000000E+00  0.000000000E+00 -1.468848845E+02  1.468848845E+02  0.000000000E+00  0.00000E+00  9.000E+00
      21     1     1     2   512   515  2.563032395E+00  2.024078100E+01 -1.317737087E+02  1.333437987E+02  1.907348633E-06  0.00000E+00  9.000E+00
      21     1     1     2   514   516 -9.102853487E-01 -1.761078046E+01  1.054760831E-01  1.763460612E+01  1.168884409E-06  0.00000E+00  9.000E+00
      21     1     1     2   515   514 -1.652747046E+00 -2.630000542E+00 -5.127853644E+00  5.995278029E+00  1.032382731E-07  0.00000E+00  9.000E+00
</event>
<event>
      5  10001  2.02673E+08  8.00411E+00 -1.00000E+00  2.07575E-01
      21    -1     0     0   513   514  0.000000000E+00  0.000000000E+00  1.391004984E+02  1.391004984E+02  0.000000000E+00  0.00000E+00  9.000E+00
      21    -1     0     0   512   517  0.000000000E+00  0.000000000E+00 -4.155624405E+01  4.155624405E+01  0.000000000E+00  0.00000E+00  9.000E+00
      21     1     1     2   513   517 -2.205727705E+01  1.105879902E+01  1.341538901E+02  1.364041302E+02  2.697398305E-06  0.00000E+00  9.000E+00
      21     1     1     2   511   514  1.878044103E+00 -1.024791461E+00 -4.936013817E+00  5.379728580E+00  1.685873940E-07  0.00000E+00  9.000E+00
      21     1     1     2   512   511  2.017923295E+01 -1.003400756E+01 -3.167362200E+01  3.887288362E+01  5.840038640E-07  0.00000E+00  9.000E+00
</event>
<event>
      5  10001  2.02673E+08  6.65139E+00 -1.00000E+00  2.18664E-01
       2    -1     0     0   512     0  0.000000000E+00  0.000000000E+00  5.976027507E+00  5.976027507E+00  0.000000000E+00  0.00000E+00  9.000E+00
       1    -1     0     0   513     0  0.000000000E+00  0.000000000E+00 -9.644611822E+02  9.644611822E+02  0.000000000E+00  0.00000E+00  9.000E+00
       1     1     1     2   512     0  1.929660253E+01 -1.666134478E+01 -9.300630472E+02  9.304124569E+02  3.300000131E-01  0.00000E+00  9.000E+00
       2     1     1     2   514     0 -1.625804382E+01  1.750999617E+01 -2.804879046E+01  3.684789683E+01  3.300000131E-01  0.00000E+00  9.000E+00
      21     1     1     2   513   514 -3.038558717E+00 -8.486513984E-01 -3.733170288E-01  3.176855974E+00  4.461025411E-07  0.00000E+00  9.000E+00
</event>
<event>
      5  10001  2.02673E+08  1.29313E+01 -1.00000E+00  1.83627E-01
      21    -1     0     0   514   513  0.000000000E+00  0.000000000E+00  3.706399778E+01  3.706399778E+01  0.000000000E+00  0.00000E+00  9.000E+00
      21    -1     0     0   511   514  0.000000000E+00  0.000000000E+00 -7.640454652E+01  7.640454652E+01  0.000000000E+00  0.00000E+00  9.000E+00
      -2     1     1     2     0   513  1.368285762E+01 -1.625128927E+01  3.153305836E+01  3.802325164E+01  3.300000131E-01  0.00000E+00  9.000E+00
       2     1     1     2   512     0 -1.370622123E+01  1.253541970E+01 -3.733461086E+01  4.170107091E+01  3.300000131E-01  0.00000E+00  9.000E+00
      21     1     1     2   511   512  2.336360725E-02  3.715869575E+00 -3.353899624E+01  3.374422174E+01  6.743495762E-07  0.00000E+00  9.000E+00
</event>
<event>
      5  10001  2.02673E+08  1.17027E+01 -1.00000E+00  1.88127E-01
      21    -1     0     0   515   516  0.000000000E+00  0.000000000E+00  3.853693612E+01  3.853693612E+01  0.000000000E+00  0.00000E+00  9.000E+00
      21    -1     0     0   513   515  0.000000000E+00  0.000000000E+00 -3.770676159E+02  3.770676159E+02  0.000000000E+00  0.00000E+00  9.000E+00
      21     1     1     2   512   516  3.686733366E+00  2.348759367E+01  2.666722368E+01  3.572673898E+01  5.840038640E-07  0.00000E+00  9.000E+00
      21     1     1     2   511   512  3.452819586E+00 -3.276010509E+01 -3.024431189E+01  4.471984851E+01  1.011524364E-06  0.00000E+00  9.000E+00
      21     1     1     2   513   511 -7.139552952E+00  9.272511421E+00 -3.349535915E+02  3.351579645E+02  3.814697266E-06  0.00000E+00  9.000E+00
</event>
<event>
      5  10001  2.02673E+08  2.24536E+01 -1.00000E+00  1.62287E-01
       1    -1     0     0   512     0  0.000000000E+00  0.000000000E+00  3.512917326E+02  3.512917326E+02  0.000000000E+00  0.00000E+00  9.000E+00
       2    -1     0     0   513     0  0.000000000E+00  0.000000000E+00 -1.851357631E+01  1.851357631E+01  0.000000000E+00  0.00000E+00  9.000E+00
       1     1     1     2   514     0  9.680573443E+00 -4.777436164E-01  3.138569952E+02  3.140067899E+02  3.300000131E-01  0.00000E+00  9.000E+00
       2     1     1     2   512     0 -1.439548825E+01  1.520928505E+01 -9.841021930E+00  2.314102518E+01  3.300000131E-01  0.00000E+00  9.000E+00
      21     1     1     2   513   514  4.714914807E+00 -1.473154143E+01  2.876218304E+01  3.265749390E+01  5.840038640E-07  0.00000E+00  9.000E+00
</event>
<event>
      5  10001  2.02673E+08  1.17169E+01 -1.00000E+00  1.88071E-01
      21    -1     0     0   512   515  0.000000000E+00  0.000000000E+00  6.080735730E+00  6.080735730E+00  0.000000000E+00  0.00000E+00  9.000E+00
      21    -1     0     0   513   511  0.000000000E+00  0.000000000E+00 -8.762511913E+02  8.762511913E+02  0.000000000E+00  0.00000E+00  9.000E+00
      21     1     1     2   513   514  1.903798558E+01 -1.281359593E+01 -7.958423834E+02  7.961731799E+02  0.000000000E+00  0.00000E+00  9.000E+00
      21     1     1     2   514   515 -2.038069226E+01  2.445327124E+01 -5.557744668E+01  6.404832293E+01  1.348699152E-06  0.00000E+00  9.000E+00
      21     1     1     2   512   511  1.342706683E+00 -1.163967531E+01 -1.875062544E+01  2.211042417E+01  0.000000000E+00  0.00000E+00  9.000E+00
</event>
<event>
      5  10001  2.02673E+08  1.48400E+01 -1.00000E+00  1.77776E-01
       2    -1     0     0   514     0  0.000000000E+00  0.000000000E+00  8.409437629E+02  8.409437629E+02  0.000000000E+00  0.00000E+00  9.000E+00
      21    -1     0     0   512   513  0.000000000E+00  0.000000000E+00 -4.218669244E+01  4.218669244E+01  0.000000000E+00  0.00000E+00  9.000E+00
      21     1     1     2   514   511  2.610627369E+01 -8.448773980E+00  3.130298027E+02  3.142301333E+02  5.394796609E-06  0.00000E+00  9.000E+00
       2     1     1     2   512     0 -3.226025188E+01  2.195256629E+01  5.252426703E+02  5.266902417E+02  3.300000131E-01  0.00000E+00  9.000E+00
      21     1     1     2   511   513  6.153978183E+00 -1.350379231E+01 -3.951540251E+01  4.221008043E+01  1.168007728E-06  0.00000E+00  9.000E+00
</event>
<event>
      5  10001  2.02673E+08  6.61313E+00 -1.00000E+00  2.19030E-01
      21    -1     0     0   515   511  0.000000000E+00  0.000000000E+00  3.557990061E+01  3.557990061E+01  0.000000000E+00  0.00000E+00  9.000E+00
      21    -1     0     0   516   515  0.000000000E+00  0.000000000E+00 -1.697045903E+01  1.697045903E+01  0.000000000E+00  0.00000E+00  9.000E+00
      21     1     1     2   516   513  1.806256345E+01 -1.042735024E+01 -3.411111427E+00  2.113342170E+01  4.020553101E-07  0.00000E+00  9.000E+00
      21     1     1     2   513   512 -8.592869995E+00  8.971232867E+00  1.532837128E+01  1.973016472E+01  4.768371582E-07  0.00000E+00  9.000E+00
      21     1     1     2   512   511 -9.469693460E+00  1.456117375E+00  6.692181720E+00  1.168677322E+01  1.192092896E-07  0.00000E+00  9.000E+00
</event>
<event>
      5  10001  2.02673E+08  1.24537E+01 -1.00000E+00  1.85297E-01
       5    -1     0     0   513     0  0.000000000E+00  0.000000000E+00  6.933560126E+00  6.933560126E+00  0.000000000E+00  0.00000E+00  9.000E+00
      21    -1     0     0   512   514  0.000000000E+00  0.000000000E+00 -1.411456672E+02  1.411456672E+02  0.000000000E+00  0.00000E+00  9.000E+00
      21     1     1     2   513   514 -1.383298325E+01 -1.302546268E+01 -1.144354226E+02  1.160020692E+02  1.348699152E-06  0.00000E+00  9.000E+00
       5     1     1     2   515     0  1.518859509E+01  4.762288264E+00 -1.523909923E+01  2.255311414E+01  4.800000191E+00  0.00000E+00  9.000E+00
      21     1     1     2   512   515 -1.355611835E+00  8.263174415E+00 -4.537585252E+00  9.524044035E+00  1.192092896E-07  0.00000E+00  9.000E+00
</event>
<event>
      5  10001  2.02673E+08  5.09982E+00 -1.00000E+00  2.36939E-01
      21    -1     0     0   511   513  0.000000000E+00  0.000000000E+00  2.205966046E+01  2.205966046E+01  0.000000000E+00  0.00000E+00  9.000E+00
       2    -1     0     0   515     0  0.000000000E+00  0.000000000E+00 -1.080863103E+02  1.080863103E+02  0.000000000E+00  0.00000E+00  9.000E+00
      21     1     1     2   515   512  1.888319932E+01 -1.222028446E+01  1.248040116E+01  2.572296604E+01  8.085167388E-07  0.00000E+00  9.000E+00
       2     1     1     2   511     0 -1.594762211E+01  8.050163460E+00 -9.762618266E+01  9.924773158E+01  3.300000131E-01  0.00000E+00  9.000E+00
      21     1     1     2   512   513 -2.935577209E+00  4.170120999E+00 -8.808682995E-01  5.175273100E+00  8.752450440E-08  0.00000E+00  9.000E+00
</event>
<event>
      5  10001  2.02673E+08  7.27723E+00 -1.00000E+00  2.13127E-01
       1    -1     0     0   512     0  0.000000000E+00  0.000000000E+00  5.507135383E+02  5.507135383E+02  0.000000000E+00  0.00000E+00  9.000E+00
      21    -1     0     0   515   511  0.000000000E+00  0.000000000E+00 -1.800658197E+00  1.800658197E+00  0.000000000E+00  0.00000E+00  9.000E+00
      21     1     1     2   512   511 -1.253280109E+01  1.998782085E+01  1.916471746E+02  1.930938208E+02  2.697398305E-06  0.00000E+00  9.000E+00
       1     1     1     2   514     0  5.641643702E+00 -2.232588720E+01  3.386608843E+02  3.394430391E+02  3.300000131E-01  0.00000E+00  9.000E+00
      21     1     1     2   515   514  6.891157387E+00  2.338066350E+00  1.860482125E+01  1.997733661E+01  4.129530925E-07  0.00000E+00  9.000E+00
</event>
<event>
      5  10001  2.02673E+08  1.01142E+01 -1.00000E+00  1.95131E-01
      21    -1     0     0   513   514  0.000000000E+00  0.000000000E+00  1.788239086E+01  1.788239086E+01  0.000000000E+00  0.00000E+00  9.000E+00
       2    -1     0     0   515     0  0.000000000E+00  0.000000000E+00 -1.366913380E+02  1.366913380E+02  0.000000000E+00  0.00000E+00  9.000E+00
      21     1     1     2   511   514 -2.082855374E+01  1.552838499E+01 -6.277957035E+00  2.672774094E+01  7.633118912E-07  0.00000E+00  9.000E+00
       2     1     1     2   513     0  3.248263490E+01 -2.681685290E+01 -9.521412581E+01  1.041158193E+02  3.300000131E-01  0.00000E+00  9.000E+00
      21     1     1     2   515   511 -1.165408116E+01  1.128846791E+01 -1.731686434E+01  2.373016869E+01  4.768371582E-07  0.00000E+00  9.000E+00
</event>
<event>
      5  10001  2.02673E+08  3.41176E+01 -1.00000E+00  1.49226E-01
       2    -1     0     0   515     0  0.000000000E+00  0.000000000E+00  3.445526447E+02  3.445526447E+02  0.000000000E+00  0.00000E+00  9.000E+00
      21    -1     0     0   512   513  0.000000000E+00  0.000000000E+00 -2.786152302E+01  2.786152302E+01  0.000000000E+00  0.00000E+00  9.000E+00
      21     1     1     2   514   513  6.467468597E+01  1.583896689E+01  3.786051843E+01  7.659704128E+01  1.430511475E-06  0.00000E+00  9.000E+00
       2     1     1     2   512     0 -7.716031124E+01  1.788797768E+00  2.200173508E+02  2.331622975E+02  3.300000131E-01  0.00000E+00  9.000E+00
      21     1     1     2   515   514  1.248562527E+01 -1.762776465E+01  5.881325242E+01  6.265482890E+01  0.000000000E+00  0.00000E+00  9.000E+00
</event>
<event>
      5  10001  2.02673E+08  9.07088E+00 -1.00000E+00  2.00722E-01
      21    -1     0     0   511   512  0.000000000E+00  0.000000000E+00  4.647841367E+01  4.647841367E+01  0.000000000E+00  0.00000E+00  9.000E+00
       1    -1     0     0   515     0  0.000000000E+00  0.000000000E+00 -2.864402202E+02  2.864402202E+02  0.000000000E+00  0.00000E+00  9.000E+00
      21     1     1     2   515   512 -1.151732009E+01 -1.564788946E+01  4.268945584E+01  4.690303558E+01  1.348699152E-06  0.00000E+00  9.000E+00
       1     1     1     2   513     0  1.507691201E+01  2.048785137E+01 -2.755151857E+02  2.766871731E+02  3.300000131E-01  0.00000E+00  9.000E+00
      21     1     1     2   511   513 -3.559591920E+00 -4.839961905E+00 -7.136076709E+00  9.328425198E+00  1.192092896E-07  0.00000E+00  9.000E+00
</event>
<event>
      5  10001  2.02673E+08  9.31601E+00 -1.00000E+00  1.99322E-01
       1    -1     0     0   514     0  0.000000000E+00  0.000000000E+00  2.902263124E+01  2.902263124E+01  0.000000000E+00  0.00000E+00  9.000E+00
       1    -1     0     0   511     0  0.000000000E+00  0.000000000E+00 -1.482917699E+02  1.482917699E+02  0.000000000E+00  0.00000E+00  9.000E+00
      21     1     1     2   514   513  1.794055263E+01 -1.444750148E+01 -2.146470576E+01  3.148535090E+01  8.259061849E-07  0.00000E+00  9.000E+00
       1     1     1     2   511     0 -9.471638691E+00  1.832858782E+01  1.936004627E+01  2.829433446E+01  3.300000131E-01  0.00000E+00  9.000E+00
       1     1     1     2   513     0 -8.468913938E+00 -3.881086343E+00 -1.171644792E+02  1.175347158E+02  3.300000131E-01  0.00000E+00  9.000E+00
</event>
<event>
      5  10001  2.02673E+08  4.76334E+00 -1.00000E+00  2.46696E-01
      21    -1     0     0   512   515  0.000000000E+00  0.000000000E+00  4.274582609E+01  4.274582609E+01  0.000000000E+00  0.00000E+00  9.000E+00
      21    -1     0     0   515   514  0.000000000E+00  0.000000000E+00 -5.745191677E+01  5.745191677E+01  0.000000000E+00  0.00000E+00  9.000E+00
      -1     1     1     2     0   511 -9.940034738E+00  2.011835011E+01 -3.007794772E+01  3.752791149E+01  3.300000131E-01  0.00000E+00  9.000E+00
       1     1     1     2   512     0  1.905308080E+01 -2.824525426E+01  2.873260056E+01  4.457000686E+01  3.300000131E-01  0.00000E+00  9.000E+00
      21     1     1     2   511   514 -9.113046063E+00  8.126904152E+00 -1.336074352E+01  1.809982451E+01  3.371747881E-07  0.00000E+00  9.000E+00
</event>
<event>
      5  10001  2.02673E+08  2.28799E+01 -1.00000E+00  1.61649E-01
      21    -1     0     0   513   516  0.000000000E+00  0.000000000E+00  1.822420071E+01  1.822420071E+01  0.000000000E+00  0.00000E+00  9.000E+00
      21    -1     0     0   515   513  0.000000000E+00  0.000000000E+00 -4.140217783E+02  4.140217783E+02  0.000000000E+00  0.00000E+00  9.000E+00
      21     1     1     2   514   516 -1.483837130E+01 -1.402754331E+01  1.200595163E+01  2.368738290E+01  7.539457465E-07  0.00000E+00  9.000E+00
      21     1     1     2   512   514  3.669640133E+00 -2.400268703E+00 -1.139819107E+02  1.140662243E+02  1.348699152E-06  0.00000E+00  9.000E+00
      21     1     1     2   515   512  1.116873116E+01  1.642781202E+01 -2.938216185E+02  2.944923718E+02  3.814697266E-06  0.00000E+00  9.000E+00
</event>
<event>
      5  10001  2.02673E+08  6.40937E+00 -1.00000E+00  2.21035E-01
      21    -1     0     0   511   514  0.000000000E+00  0.000000000E+00  2.644706938E+01  2.644706938E+01  0.000000000E+00  0.00000E+00  9.000E+00
      21    -1     0     0   515   511  0.000000000E+00  0.000000000E+00 -2.760137423E+01  2.760137423E+01  0.000000000E+00  0.00000E+00  9.000E+00
      21     1     1     2   512   514 -4.201868643E+00 -2.604928363E+01  4.592224017E+00  2.678263242E+01  1.884864366E-07  0.00000E+00  9.000E+00
      21     1     1     2   513   512  2.676777194E+00  6.297748667E+00 -1.457714256E+00  6.996549526E+00  1.134838627E-07  0.00000E+00  9.000E+00
      21     1     1     2   515   513  1.525091449E+00  1.975153497E+01 -4.288814612E+00  2.026926166E+01  7.420718430E-07  0.00000E+00  9.000E+00
</event>
<event>
      5  10001  2.02673E+08  1.16429E+01 -1.00000E+00  1.88364E-01
      21    -1     0     0   516   513  0.000000000E+00  0.000000000E+00  7.816629400E+01  7.816629400E+01  0.000000000E+00  0.00000E+00  9.000E+00
      21    -1     0     0   514   517  0.000000000E+00  0.000000000E+00 -9.165791537E+01  9.165791537E+01  0.000000000E+00  0.00000E+00  9.000E+00
      21     1     1     2   516   517  2.891319808E+00  1.954874574E+01 -8.790477509E+01  9.009862748E+01  9.536743164E-07  0.00000E+00  9.000E+00
      21     1     1     2   511   513  6.450236169E+00 -1.437243376E+01  5.832679209E+01  6.041677808E+01  1.168007728E-06  0.00000E+00  9.000E+00
      21     1     1     2   514   511 -9.341555978E+00 -5.176311980E+00  1.608636163E+01  1.930880380E+01  4.129530925E-07  0.00000E+00  9.000E+00
</event>
<event>
      5  10001  2.02673E+08  1.52332E+01 -1.00000E+00  1.76708E-01
      21    -1     0     0   512   511  0.000000000E+00  0.000000000E+00  8.313317424E+01  8.313317424E+01  0.000000000E+00  0.00000E+00  9.000E+00
      21    -1     0     0   514   513  0.000000000E+00  0.000000000E+00 -1.654716296E+02  1.654716296E+02  0.000000000E+00  0.00000E+00  9.000E+00
      21     1     1     2   512   515 -1.134446105E+01  2.425006905E+01  7.029052966E+01  7.521649557E+01  9.536743164E-07  0.00000E+00  9.000E+00
      21     1     1     2   514   511 -3.854286215E+00 -2.322667594E+01 -3.880607878E+00  2.386195958E+01  3.998401125E-07  0.00000E+00  9.000E+00
      21     1     1     2   515   513  1.519874727E+01 -1.023393109E+00 -1.487483772E+02  1.495263487E+02  1.907348633E-06  0.00000E+00  9.000E+00
</event>
<event>
      5  10001  2.02673E+08  4.47607E+00 -1.00000E+00  2.52371E-01
      21    -1     0     0   516   511  0.000000000E+00  0.000000000E+00  5.000421330E+00  5.000421330E+00  0.000000000E+00  0.00000E+00  9.000E+00
      21    -1     0     0   517   516  0.000000000E+00  0.000000000E+00 -8.751336425E+01  8.751336425E+01  0.000000000E+00  0.00000E+00  9.000E+00
      21     1     1     2   513   511 -1.203318788E+01 -1.625499588E+01 -3.748928995E+01  4.259658862E+01  0.000000000E+00  0.00000E+00  9.000E+00
      21     1     1     2   517   512  1.167996529E+01  1.073032787E+01 -3.056927920E+01  3.443896566E+01  7.539457465E-07  0.00000E+00  9.000E+00
      21     1     1     2   512   513  3.532225917E-01  5.524668004E+00 -1.445437377E+01  1.547823129E+01  1.685873940E-07  0.00000E+00  9.000E+00
</event>
<event>
      5  10001  2.02673E+08  7.46852E+00 -1.00000E+00  2.11584E-01
       1    -1     0     0   513     0  0.000000000E+00  0.000000000E+00  1.270732365E+02  1.270732365E+02  0.000000000E+00  0.00000E+00  9.000E+00
       4    -1     0     0   512     0  0.000000000E+00  0.000000000E+00 -2.606958618E+01  2.606958618E+01  0.000000000E+00  0.00000E+00  9.000E+00
       1     1     1     2   511     0 -6.380353623E+00 -2.091909758E+01  1.189292808E+02  1.209239442E+02  3.300000131E-01  0.00000E+00  9.000E+00
       4     1     1     2   513     0  7.319151516E+00  2.312160954E+01 -1.698461730E+01  2.964634938E+01  1.500000000E+00  0.00000E+00  9.000E+00
      21     1     1     2   512   511 -9.387978931E-01 -2.202511953E+00 -9.410131228E-01  2.572529122E+00  1.053671213E-08  0.00000E+00  9.000E+00
</event>
<event>
      5  10001  2.02673E+08  1.14234E+01 -1.00000E+00  1.89251E-01
      21    -1     0     0   514   512  0.000000000E+00  0.000000000E+00  1.054434486E+01  1.054434486E+01  0.000000000E+00  0.00000E+00  9.000E+00
      21    -1     0     0   511   514  0.000000000E+00  0.000000000E+00 -1.438666507E+02  1.438666507E+02  0.000000000E+00  0.00000E+00  9.000E+00
      21     1     1     2   513   512  7.771066485E+00  5.636642120E-01  4.063878368E+00  8.787621923E+00  3.816559456E-07  0.00000E+00  9.000E+00
       3     1     1     2   511     0 -2.022871193E+01 -6.147489923E+00 -1.262202843E+02  1.279796960E+02  5.000000000E-01  0.00000E+00  9.000E+00
      -3     1     1     2     0   513  1.245764545E+01  5.583825711E+00 -1.116589990E+01  1.764367763E+01  5.000000000E-01  0.00000E+00  9.000E+00
</event>
<event>
      5  10001  2.02673E+08  3.68812E+00 -1.00000E+00  2.71948E-01
      -4    -1     0     0     0   513  0.000000000E+00  0.000000000E+00  4.904045996E+01  4.904045996E+01  0.000000000E+00  0.00000E+00  9.000E+00
       2    -1     0     0   511     0  0.000000000E+00  0.000000000E+00 -4.067682207E+01  4.067682207E+01  0.000000000E+00  0.00000E+00  9.000E+00
      -4     1     1     2     0   514 -1.662151141E+01  1.011650030E+01  4.242736491E+01  4.670063718E+01  1.500000000E+00  0.00000E+00  9.000E+00
       2     1     1     2   514     0  1.804837483E+01 -1.351618678E+01 -2.851067695E+01  3.635104867E+01  3.300000131E-01  0.00000E+00  9.000E+00
      21     1     1     2   511   513 -1.426863415E+00  3.399686486E+00 -5.553050066E+00  6.665596181E+00  1.332800375E-07  0.00000E+00  9.000E+00
</event>
<event>
      5  10001  2.02673E+08  1.85859E+01 -1.00000E+00  1.68997E-01
      21    -1     0     0   511   512  0.000000000E+00  0.000000000E+00  2.368732446E+02  2.368732446E+02  0.000000000E+00  0.00000E+00  9.000E+00
       1    -1     0     0   513     0  0.000000000E+00  0.000000000E+00 -3.035410404E+01  3.035410404E+01  0.000000000E+00  0.00000E+00  9.000E+00
      21     1     1     2   513   512 -2.822251513E+01  9.510416865E+00  2.267855826E+02  2.287327236E+02  2.697398305E-06  0.00000E+00  9.000E+00
      21     1     1     2   511   514  1.170045947E+01  2.863610634E+00 -6.587614893E+00  1.372944600E+01  1.099055345E-06  0.00000E+00  9.000E+00
       1     1     1     2   514     0  1.652205566E+01 -1.237402750E+01 -1.367882713E+01  2.476517901E+01  3.300000131E-01  0.00000E+00  9.000E+00
</event>
<event>
      5  10001  2.02673E+08  1.27076E+01 -1.00000E+00  1.84398E-01
      21    -1     0     0   513   514  0.000000000E+00  0.000000000E+00  1.925709259E+01  1.925709259E+01  0.000000000E+00  0.00000E+00  9.000E+00
      -1    -1     0     0     0   515  0.000000000E+00  0.000000000E+00 -5.815468952E+01  5.815468952E+01  0.000000000E+00  0.00000E+00  9.000E+00
      21     1     1     2   511   514 -8.225049318E+00 -1.249403076E+01 -2.039833736E+01  2.529514594E+01  2.384185791E-07  0.00000E+00  9.000E+00
      21     1     1     2   513   515  2.104964066E+01  1.339144176E+01  4.891876228E+00  2.542338564E+01  5.462855929E-07  0.00000E+00  9.000E+00
      -1     1     1     2     0   511 -1.282459135E+01 -8.974109973E-01 -2.339113581E+01  2.669325053E+01  3.300000131E-01  0.00000E+00  9.000E+00
</event>
<event>
      5  10001  2.02673E+08  3.18613E+01 -1.00000E+00  1.51212E-01
      21    -1     0     0   512   516  0.000000000E+00  0.000000000E+00  1.178350466E+03  1.178350466E+03  0.000000000E+00  0.00000E+00  9.000E+00
       2    -1     0     0   513     0  0.000000000E+00  0.000000000E+00 -8.968893967E+02  8.968893967E+02  0.000000000E+00  0.00000E+00  9.000E+00
      21     1     1     2   513   516 -2.617853190E+01  2.190570640E+00  1.168777901E+03  1.169073092E+03  1.525878906E-05  0.00000E+00  9.000E+00
       2     1     1     2   514     0  5.264453134E+01 -1.162346249E+00 -8.756385185E+02  8.772204522E+02  3.300000131E-01  0.00000E+00  9.000E+00
      21     1     1     2   512   514 -2.646599943E+01 -1.028224391E+00 -1.167831264E+01  2.894631855E+01  5.057621821E-07  0.00000E+00  9.000E+00
</event>
<event>
      5  10001  2.02673E+08  6.82946E+00 -1.00000E+00  2.17006E-01
      21    -1     0     0   511   514  0.000000000E+00  0.000000000E+00  1.458566644E+02  1.458566644E+02  0.000000000E+00  0.00000E+00  9.000E+00
      21    -1     0     0   513   515  0.000000000E+00  0.000000000E+00 -9.562736145E+00  9.562736145E+00  0.000000000E+00  0.00000E+00  9.000E+00
      21     1     1     2   511   515 -3.605282755E+01  5.616533171E-01  7.914706151E+01  8.697343947E+01  1.907348633E-06  0.00000E+00  9.000E+00
      21     1     1     2   513   516  2.719823844E+01 -3.278003814E+00  4.886981121E+01  5.602452973E+01  6.743495762E-07  0.00000E+00  9.000E+00
      21     1     1     2   516   514  8.854589102E+00  2.716350497E+00  8.277055527E+00  1.242143133E+01  3.371747881E-07  0.00000E+00  9.000E+00
</event>
<event>
      5  10001  2.02673E+08  2.01236E+01 -1.00000E+00  1.66107E-01
       2    -1     0     0   511     0  0.000000000E+00  0.000000000E+00  3.351815306E+02  3.351815306E+02  0.000000000E+00  0.00000E+00  9.000E+00
      21    -1     0     0   516   511  0.000000000E+00  0.000000000E+00 -1.547651178E+01  1.547651178E+01  0.000000000E+00  0.00000E+00  9.000E+00
      21     1     1     2   516   512 -7.892495047E+00 -2.285970581E+01 -1.958276220E+00  2.426298567E+01  1.096628278E-06  0.00000E+00  9.000E+00
       2     1     1     2   513     0  9.601246701E+00  1.536222001E+01  3.167540878E+02  3.172718751E+02  3.300000131E-01  0.00000E+00  9.000E+00
      21     1     1     2   512   513 -1.708751655E+00  7.497485802E+00  4.909207238E+00  9.123181533E+00  2.457562462E-07  0.00000E+00  9.000E+00
</event>
<event>
      5  10001  2.02673E+08  8.35373E+00 -1.00000E+00  2.05179E-01
      21    -1     0     0   512   513  0.000000000E+00  0.000000000E+00  1.025774080E+02  1.025774080E+02  0.000000000E+00  0.00000E+00  9.000E+00
       2    -1     0     0   513     0  0.000000000E+00  0.000000000E+00 -7.443182246E+01  7.443182246E+01  0.000000000E+00  0.00000E+00  9.000E+00
       1     1     1     2   512     0  2.014616306E+01  1.475155465E+01  8.759025943E+01  9.108039689E+01  3.300000131E-01  0.00000E+00  9.000E+00
       2     1     1     2   514     0 -2.762447557E+01 -1.086617230E+01 -6.782624404E+01  7.403846049E+01  3.300000131E-01  0.00000E+00  9.000E+00
      -1     1     1     2     0   514  7.478312510E+00 -3.885382343E+00  8.381570153E+00  1.189037309E+01  3.300000131E-01  0.00000E+00  9.000E+00
</event>
<event>
      5  10001  2.02673E+08  9.27196E+00 -1.00000E+00  1.99569E-01
      -2    -1     0     0     0   511  0.000000000E+00  0.000000000E+00  1.006247887E+01  1.006247887E+01  0.000000000E+00  0.00000E+00  9.000E+00
      21    -1     0     0   512   514  0.000000000E+00  0.000000000E+00 -5.247109784E+01  5.247109784E+01  0.000000000E+00  0.00000E+00  9.000E+00
      -2     1     1     2     0   513  1.862998472E+01 -9.737762967E+00 -1.367893828E+01  2.508231670E+01  3.300000131E-01  0.00000E+00  9.000E+00
      21     1     1     2   512   511 -1.836365466E+01  4.806330023E+00 -2.131176080E+01  2.853972266E+01  2.384185791E-07  0.00000E+00  9.000E+00
      21     1     1     2   513   514 -2.663300564E-01  4.931432944E+00 -7.417919884E+00  8.911537353E+00  1.685873940E-07  0.00000E+00  9.000E+00
</event>
<event>
      5  10001  2.02673E+08  1.12624E+01 -1.00000E+00  1.89917E-01
      21    -1     0     0   515   512  0.000000000E+00  0.000000000E+00  2.114935351E+01  2.114935351E+01  0.000000000E+00  0.00000E+00  9.000E+00
      21    -1     0     0   513   516  0.000000000E+00  0.000000000E+00 -6.609142828E+01  6.609142828E+01  0.000000000E+00  0.00000E+00  9.000E+00
      21     1     1     2   515   516 -1.431607747E+01  1.687839484E+01  1.194549680E+01  2.515005328E+01  4.129530925E-07  0.00000E+00  9.000E+00
      21     1     1     2   513   511  4.222482897E+00 -5.150163106E+00 -3.274234258E+01  3.341279006E+01  6.743495762E-07  0.00000E+00  9.000E+00
      21     1     1     2   511   512  1.009359457E+01 -1.172823173E+01 -2.414522899E+01  2.867793845E+01  5.840038640E-07  0.00000E+00  9.000E+00
</event>
<event>
      5  10001  2.02673E+08  2.26144E+01 -1.00000E+00  1.62044E-01
      21    -1     0     0   511   514  0.000000000E+00  0.000000000E+00  1.620891281E+02  1.620891281E+02  0.000000000E+00  0.00000E+00  9.000E+00
       3    -1     0     0   513     0  0.000000000E+00  0.000000000E+00 -2.004540410E+02  2.004540410E+02  0.000000000E+00  0.00000E+00  9.000E+00
      21     1     1     2   513   512 -5.984604509E+01  1.043987965E+01 -9.866478357E+00  6.154581704E+01  9.757700887E-07  0.00000E+00  9.000E+00
       3     1     1     2   511     0  4.902624052E+01  9.418156252E+00 -1.599779439E+02  1.675871906E+02  5.000000000E-01  0.00000E+00  9.000E+00
      21     1     1     2   512   514  1.081980457E+01 -1.985803590E+01  1.314795095E+02  1.334101614E+02  1.907348633E-06  0.00000E+00  9.000E+00
</event>
<event>
      5  10001  2.02673E+08  1.78558E+01 -1.00000E+00  1.70494E-01
      21    -1     0     0   515   513  0.000000000E+00  0.000000000E+00  2.087403580E+01  2.087403580E+01  0.000000000E+00  0.00000E+00  9.000E+00
      21    -1     0     0   512   511  0.000000000E+00  0.000000000E+00 -4.298104669E+02  4.298104669E+02  0.000000000E+00  0.00000E+00  9.000E+00
      21     1     1     2   515   514 -5.434561106E+00  2.615988316E+01 -8.678989835E+00  2.809268243E+01  7.539457465E-07  0.00000E+00  9.000E+00
      21     1     1     2   512   513  1.752286327E+01 -1.301818578E+01  1.067120480E-01  2.182968817E+01  5.338566512E-07  0.00000E+00  9.000E+00
      21     1     1     2   514   511 -1.208830216E+01 -1.314169738E+01 -4.003641533E+02  4.007621321E+02  5.394796609E-06  0.00000E+00  9.000E+00
</event>
<event>
      5  10001  2.02673E+08  5.88786E+00 -1.00000E+00  2.26672E-01
       2    -1     0     0   512     0  0.000000000E+00  0.000000000E+00  1.009296674E+03  1.009296674E+03  0.000000000E+00  0.00000E+00  9.000E+00
      21    -1     0     0   513   511  0.000000000E+00  0.000000000E+00 -2.002294923E+00  2.002294923E+00  0.000000000E+00  0.00000E+00  9.000E+00
      21     1     1     2   512   511  1.615098547E+01  1.240695027E+01  3.680172349E+02  3.685803467E+02  1.078959322E-05  0.00000E+00  9.000E+00
       2     1     1     2   516     0 -2.072109417E+01 -8.694844938E+00  6.351049903E+02  6.355024954E+02  3.300000131E-01  0.00000E+00  9.000E+00
      21     1     1     2   513   516  4.570108696E+00 -3.712105333E+00  4.172153954E+00  7.216126947E+00  5.685920724E-07  0.00000E+00  9.000E+00
</event>
<event>
      5  10001  2.02673E+08  1.21420E+01 -1.00000E+00  1.86440E-01
      21    -1     0     0   514   515  0.000000000E+00  0.000000000E+00  6.988197207E+00  6.988197207E+00  0.000000000E+00  0.00000E+00  9.000E+00
       1    -1     0     0   515     0  0.000000000E+00  0.000000000E+00 -1.763828166E+02  1.763828166E+02  0.000000000E+00  0.00000E+00  9.000E+00
      21     1     1     2   514   513 -1.709038386E+01 -8.973186082E+00 -1.087793215E+01  2.215691082E+01  4.616955931E-07  0.00000E+00  9.000E+00
       1     1     1     2   511     0  8.556429893E+00  7.692092213E+00 -1.429729423E+02  1.434355322E+02  3.300000131E-01  0.00000E+00  9.000E+00
      21     1     1     2   513   511  8.533953971E+00  1.281093868E+00 -1.554374503E+01  1.777857085E+01  2.384185791E-07  0.00000E+00  9.000E+00
</event>
<event>
      5  10001  2.02673E+08  2.81724E+01 -1.00000E+00  1.54924E-01
      21    -1     0     0   511   513  0.000000000E+00  0.000000000E+00  3.394005046E+00  3.394005046E+00  0.000000000E+00  0.00000E+00  9.000E+00
       2    -1     0     0   513     0  0.000000000E+00  0.000000000E+00 -9.463432269E+02  9.463432269E+02  0.000000000E+00  0.00000E+00  9.000E+00
      21     1     1     2   514   512  4.279780620E+01  1.146020081E+01 -3.401650713E+02  3.430382838E+02  0.000000000E+00  0.00000E+00  9.000E+00
       2     1     1     2   512     0 -4.569656707E+01  2.905941784E+00 -5.504547311E+02  5.523559908E+02  3.300000131E-01  0.00000E+00  9.000E+00
      21     1     1     2   511   514  2.898760870E+00 -1.436614259E+01 -5.232941950E+01  5.434295734E+01  1.651812370E-06  0.00000E+00  9.000E+00
</event>
<event>
      5  10001  2.02673E+08  4.57097E+00 -1.00000E+00  2.50426E-01
       1    -1     0     0   512     0  0.000000000E+00  0.000000000E+00  3.945874768E+02  3.945874768E+02  0.000000000E+00  0.00000E+00  9.000E+00
      21    -1     0     0   511   515  0.000000000E+00  0.000000000E+00 -2.016627753E+00  2.016627753E+00  0.000000000E+00  0.00000E+00  9.000E+00
      21     1     1     2   512   513 -1.268596005E+01 -1.251139385E+01  4.849383312E+01  5.166353075E+01  6.743495762E-07  0.00000E+00  9.000E+00
       1     1     1     2   511     0  1.252062383E+01  1.610475880E+01  3.110160902E+02  3.116845305E+02  3.300000131E-01  0.00000E+00  9.000E+00
      21     1     1     2   513   515  1.653362230E-01 -3.593364950E+00  3.306092567E+01  3.325604327E+01  4.768371582E-07  0.00000E+00  9.000E+00
</event>
<event>
      5  10001  2.02673E+08  5.70827E+00 -1.00000E+00  2.28806E-01
      21    -1     0     0   514   512  0.000000000E+00  0.000000000E+00  1.160532353E+03  1.160532353E+03  0.000000000E+00  0.00000E+00  9.000E+00
      21    -1     0     0   516   514  0.000000000E+00  0.000000000E+00 -7.622864797E+00  7.622864797E+00  0.000000000E+00  0.00000E+00  9.000E+00
      21     1     1     2   516   515 -6.065344972E+00  2.049077031E+01  7.814900628E+00  2.275374143E+01  7.492187673E-07  0.00000E+00  9.000E+00
      21     1     1     2   515   511  3.986996142E-01 -1.980265227E+01  9.973563054E+02  9.975529579E+02  2.157918644E-05  0.00000E+00  9.000E+00
      21     1     1     2   511   512  5.666645358E+00 -6.881180430E-01  1.477382826E+02  1.478485188E+02  3.303624740E-06  0.00000E+00  9.000E+00
</event>
<event>
      5  10001  2.02673E+08  1.50161E+01 -1.00000E+00  1.77292E-01
       1    -1     0     0   514     0  0.000000000E+00  0.000000000E+00  3.568050922E+02  3.568050922E+02  0.000000000E+00  0.00000E+00  9.000E+00
      21    -1     0     0   511   515  0.000000000E+00  0.000000000E+00 -4.601898838E+01  4.601898838E+01  0.000000000E+00  0.00000E+00  9.000E+00
      21     1     1     2   514   513 -4.049744458E+01 -1.711476017E+00  1.061801979E+02  1.136538894E+02  0.000000000E+00  0.00000E+00  9.000E+00
       1     1     1     2   511     0  4.097400274E+01  1.671998799E+01  2.434943172E+02  2.474833698E+02  3.300000131E-01  0.00000E+00  9.000E+00
      21     1     1     2   513   515 -4.765581589E-01 -1.500851197E+01 -3.888841130E+01  4.168682133E+01  6.743495762E-07  0.00000E+00  9.000E+00
</event>
<event>
      5  10001  2.02673E+08  2.61294E+01 -1.00000E+00  1.57290E-01
      21    -1     0     0   512   515  0.000000000E+00  0.000000000E+00  2.779299990E+01  2.779299990E+01  0.000000000E+00  0.00000E+00  9.000E+00
      21    -1     0     0   516   512  0.000000000E+00  0.000000000E+00 -2.235696732E+01  2.235696732E+01  0.000000000E+00  0.00000E+00  9.000E+00
      21     1     1     2   511   515  8.759550632E+00  1.293058271E+01 -3.623483846E+00  1.603306994E+01  3.125693942E-07  0.00000E+00  9.000E+00
      21     1     1     2   514   511  5.810676117E+00 -1.608088418E+01  8.748740294E+00  1.920675011E+01  2.384185791E-07  0.00000E+00  9.000E+00
      21     1     1     2   516   514 -1.457022675E+01  3.150301473E+00  3.107761341E-01  1.491014717E+01  2.517535639E-07  0.00000E+00  9.000E+00
</event>
<event>
      5  10001  2.02673E+08  9.90057E+00 -1.00000E+00  1.96201E-01
      21    -1     0     0   511   512  0.000000000E+00  0.000000000E+00  5.256843562E+00  5.256843562E+00  0.000000000E+00  0.00000E+00  9.000E+00
      -1    -1     0     0     0   513  0.000000000E+00  0.000000000E+00 -4.499373718E+02  4.499373718E+02  0.000000000E+00  0.00000E+00  9.000E+00
      -1     1     1     2     0   514  1.373834909E+01  8.021026837E+00 -3.028069803E+02  3.032247604E+02  3.300000131E-01  0.00000E+00  9.000E+00
      21     1     1     2   511   513 -2.088626792E+01 -1.487123653E+01 -1.394355544E+02  1.417732827E+02  2.697398305E-06  0.00000E+00  9.000E+00
      21     1     1     2   514   512  7.147918829E+00  6.850209695E+00 -2.437993592E+00  1.019617228E+01  7.177349674E-07  0.00000E+00  9.000E+00
</event>
<event>
      5  10001  2.02673E+08  1.38415E+01 -1.00000E+00  1.80687E-01
      -4    -1     0     0     0   512  0.000000000E+00  0.000000000E+00  2.583444448E+02  2.583444448E+02  0.000000000E+00  0.00000E+00  9.000E+00
      21    -1     0     0   512   515  0.000000000E+00  0.000000000E+00 -2.939757265E+01  2.939757265E+01  0.000000000E+00  0.00000E+00  9.000E+00
      -4     1     1     2     0   513 -2.401008601E+01 -6.884644448E-01  2.507663644E+02  2.519185934E+02  1.500000000E+00  0.00000E+00  9.000E+00
      21     1     1     2   513   511  1.925816935E+01 -3.701976314E+00 -9.241733532E+00  2.167928399E+01  1.792108581E-06  0.00000E+00  9.000E+00
      21     1     1     2   511   515  4.751916654E+00  4.390440759E+00 -1.257775872E+01  1.414414000E+01  1.316709640E-06  0.00000E+00  9.000E+00
</event>
<event>
      5  10001  2.02673E+08  2.23688E+01 -1.00000E+00  1.62416E-01
      21    -1     0     0   511   512  0.000000000E+00  0.000000000E+00  2.568688366E+01  2.568688366E+01  0.000000000E+00  0.00000E+00  9.000E+00
       2    -1     0     0   513     0  0.000000000E+00  0.000000000E+00 -4.519143821E+02  4.519143821E+02  0.000000000E+00  0.00000E+00  9.000E+00
      21     1     1     2   513   512  2.196472618E+01 -5.517126453E+01 -1.519690479E+01  6.129652145E+01  1.250277577E-06  0.00000E+00  9.000E+00
       2     1     1     2   514     0 -3.893820282E+00  4.417948959E+01 -2.519166150E+02  2.557910846E+02  3.300000131E-01  0.00000E+00  9.000E+00
      21     1     1     2   511   514 -1.807090590E+01  1.099177495E+01 -1.591139787E+02  1.605136598E+02  1.907348633E-06  0.00000E+00  9.000E+00
</event>
<event>
      5  10001  2.02673E+08  4.80839E+00 -1.00000E+00  2.45860E-01
      -2    -1     0     0     0   513  0.000000000E+00  0.000000000E+00  2.160388763E+01  2.160388763E+01  0.000000000E+00  0.00000E+00  9.000E+00
      21    -1     0     0   513   512  0.000000000E+00  0.000000000E+00 -9.060254483E+01  9.060254483E+01  0.000000000E+00  0.00000E+00  9.000E+00
      -2     1     1     2     0   511  4.827192636E+00  3.381385329E+01 -4.908293270E+00  3.450911047E+01  3.300000131E-01  0.00000E+00  9.000E+00
       4     1     1     2   511     0 -7.051548543E+00 -3.806393081E+01 -5.444984335E+01  6.682531412E+01  1.500000000E+00  0.00000E+00  9.000E+00
      -4     1     1     2     0   512  2.224355907E+00  4.250077523E+00 -9.640520582E+00  1.087200788E+01  1.500000000E+00  0.00000E+00  9.000E+00
</event>
<event>
      5  10001  2.02673E+08  1.60523E+01 -1.00000E+00  1.74608E-01
      21    -1     0     0   514   513  0.000000000E+00  0.000000000E+00  4.124313230E+01  4.124313230E+01  0.000000000E+00  0.00000E+00  9.000E+00
       1    -1     0     0   511     0  0.000000000E+00  0.000000000E+00 -3.751740888E+01  3.751740888E+01  0.000000000E+00  0.00000E+00  9.000E+00
      21     1     1     2   511   513  1.648665720E+01  9.550900868E+00  3.234351180E+01  3.753841138E+01  4.768371582E-07  0.00000E+00  9.000E+00
       1     1     1     2   515     0 -7.133172288E+00  6.473094474E-01 -2.621396094E+01  2.717686156E+01  3.300000131E-01  0.00000E+00  9.000E+00
      21     1     1     2   514   515 -9.353484910E+00 -1.019821032E+01 -2.403827442E+00  1.404526824E+01  3.345302391E-07  0.00000E+00  9.000E+00
</event>
<event>
      5  10001  2.02673E+08  3.81320E+01 -1.00000E+00  1.46108E-01
      -2    -1     0     0     0   512  0.000000000E+00  0.000000000E+00  1.452618863E+01  1.452618863E+01  0.000000000E+00  0.00000E+00  9.000E+00
      21    -1     0     0   514   515  0.000000000E+00  0.000000000E+00 -3.328796585E+01  3.328796585E+01  0.000000000E+00  0.00000E+00  9.000E+00
      21     1     1     2   511   515  3.014620989E+00 -3.066069247E+00 -3.124907017E+01  3.154351133E+01  0.000000000E+00  0.00000E+00  9.000E+00
      21     1     1     2   514   512 -4.720495059E-01  3.520932456E+00  3.871972914E-02  3.552646241E+00  3.568044343E-07  0.00000E+00  9.000E+00
      -2     1     1     2     0   511 -2.542571483E+00 -4.548632087E-01  1.244857322E+01  1.271799692E+01  3.300000131E-01  0.00000E+00  9.000E+00
</event>
<event>
      5  10001  2.02673E+08  1.22844E+01 -1.00000E+00  1.85912E-01
      21    -1     0     0   513   511  0.000000000E+00  0.000000000E+00  4.659971758E+01  4.659971758E+01  0.000000000E+00  0.00000E+00  9.000E+00
      21    -1     0     0   516   513  0.000000000E+00  0.000000000E+00 -4.672836240E+01  4.672836240E+01  0.000000000E+00  0.00000E+00  9.000E+00
      21     1     1     2   514   511 -1.971049638E+01  1.037919487E+00  3.754679545E+01  4.241866090E+01  1.168007728E-06  0.00000E+00  9.000E+00
      21     1     1     2   512   514  1.648187613E+01 -8.557557969E+00 -3.843936608E+01  4.269038421E+01  9.536743164E-07  0.00000E+00  9.000E+00
      21     1     1     2   516   512  3.228620251E+00  7.519638482E+00  7.639258107E-01  8.219034875E+00  2.769772752E-07  0.00000E+00  9.000E+00
</event>
<event>
      5  10001  2.02673E+08  1.35876E+01 -1.00000E+00  1.81478E-01
      21    -1     0     0   515   512  0.000000000E+00  0.000000000E+00  1.388212999E+02  1.388212999E+02  0.000000000E+00  0.00000E+00  9.000E+00
      21    -1     0     0   511   513  0.000000000E+00  0.000000000E+00 -5.424775055E+01  5.424775055E+01  0.000000000E+00  0.00000E+00  9.000E+00
      21     1     1     2   515   517 -1.380313827E+01 -1.626255768E+01  1.307905820E+02  1.325185789E+02  3.303624740E-06  0.00000E+00  9.000E+00
      21     1     1     2   511   512  2.299584598E+01  6.256714026E+00 -3.741732612E+01  4.436227786E+01  1.507891493E-06  0.00000E+00  9.000E+00
      21     1     1     2   517   513 -9.192707708E+00  1.000584365E+01 -8.799706494E+00  1.618819374E+01  2.064765462E-07  0.00000E+00  9.000E+00
</event>
<event>
      5  10001  2.02673E+08  2.18367E+01 -1.00000E+00  1.63241E-01
      21    -1     0     0   514   512  0.000000000E+00  0.000000000E+00  1.022461063E+02  1.022461063E+02  0.000000000E+00  0.00000E+00  9.000E+00
      21    -1     0     0   516   514  0.000000000E+00  0.000000000E+00 -8.732512948E+01  8.732512948E+01  0.000000000E+00  0.00000E+00  9.000E+00
      21     1     1     2   511   512 -7.043360449E-01  2.005919166E+01  9.872956524E+01  1.007491653E+02  1.348699152E-06  0.00000E+00  9.000E+00
      21     1     1     2   515   511  1.023675662E+01 -5.732874085E+00 -4.207007385E+01  4.367548678E+01  6.743495762E-07  0.00000E+00  9.000E+00
      21     1     1     2   516   515 -9.532420573E+00 -1.432631757E+01 -4.173851458E+01  4.514658367E+01  0.000000000E+00  0.00000E+00  9.000E+00
</event>
<event>
      5  10001  2.02673E+08  9.77811E+00 -1.00000E+00  1.96831E-01
      21    -1     0     0   513   512  0.000000000E+00  0.000000000E+00  2.371314290E+02  2.371314290E+02  0.000000000E+00  0.00000E+00  9.000E+00
      21    -1     0     0   516   513  0.000000000E+00  0.000000000E+00 -7.639816828E+00  7.639816828E+00  0.000000000E+00  0.00000E+00  9.000E+00
      21     1     1     2   516   517  2.075033956E+01 -3.294797172E-01  9.811344000E+00  2.295533968E+01  6.529361695E-07  0.00000E+00  9.000E+00
      21     1     1     2   511   512 -1.510347190E+01 -3.850929592E+00  2.044489805E+02  2.050422643E+02  2.697398305E-06  0.00000E+00  9.000E+00
      21     1     1     2   517   511 -5.646867662E+00  4.180409309E+00  1.523128762E+01  1.677364179E+01  2.920019320E-07  0.00000E+00  9.000E+00
</event>
<event>
      5  10001  2.02673E+08  1.01858E+01 -1.00000E+00  1.94780E-01
       2    -1     0     0   513     0  0.000000000E+00  0.000000000E+00  5.178511585E+02  5.178511585E+02  0.000000000E+00  0.00000E+00  9.000E+00
      21    -1     0     0   512   511  0.000000000E+00  0.000000000E+00 -5.348874425E+01  5.348874425E+01  0.000000000E+00  0.00000E+00  9.000E+00
      21     1     1     2   513   511 -2.369283445E+01  1.287433563E+00 -4.215495444E+01  4.837404338E+01  2.739220927E-06  0.00000E+00  9.000E+00
       2     1     1     2   514     0  2.515851396E+01  8.792313634E+00  5.111015890E+02  5.117960520E+02  3.300000131E-01  0.00000E+00  9.000E+00
      21     1     1     2   512   514 -1.465679512E+00 -1.007974720E+01 -4.584220386E+00  1.116980736E+01  2.598106231E-07  0.00000E+00  9.000E+00
</event>
<event>
      5  10001  2.02673E+08  2.01231E+01 -1.00000E+00  1.66108E-01
      21    -1     0     0   515   511  0.000000000E+00  0.000000000E+00  1.917459689E+02  1.917459689E+02  0.000000000E+00  0.00000E+00  9.000E+00
      21    -1     0     0   512   516  0.000000000E+00  0.000000000E+00 -4.400924693E+01  4.400924693E+01  0.000000000E+00  0.00000E+00  9.000E+00
      21     1     1     2   515   516  1.594664655E+01 -2.283889442E+01 -3.826603631E+01  4.733075289E+01  0.000000000E+00  0.00000E+00  9.000E+00
      21     1     1     2   513   511 -3.885592018E+00  1.022392558E+01  4.337040611E+01  4.472827524E+01  0.000000000E+00  0.00000E+00  9.000E+00
      21     1     1     2   512   513 -1.206105453E+01  1.261496884E+01  1.426323522E+02  1.436961877E+02  3.303624740E-06  0.00000E+00  9.000E+00
</event>
<event>
      5  10001  2.02673E+08  1.59223E+01 -1.00000E+00  1.74930E-01
      -4    -1     0     0     0   514  0.000000000E+00  0.000000000E+00  1.255780184E+02  1.255780184E+02  0.000000000E+00  0.00000E+00  9.000E+00
      21    -1     0     0   511   513  0.000000000E+00  0.000000000E+00 -3.831387868E+00  3.831387868E+00  0.000000000E+00  0.00000E+00  9.000E+00
      -4     1     1     2     0   515  1.211889760E+01  3.978463323E+00  4.713950748E+01  4.885774263E+01  1.500000000E+00  0.00000E+00  9.000E+00
      21     1     1     2   511   514 -1.034811262E+01 -1.551012033E+01  4.828127675E+01  5.175643875E+01  9.536743164E-07  0.00000E+00  9.000E+00
      21     1     1     2   515   513 -1.770784978E+00  1.153165701E+01  2.632584630E+01  2.879522488E+01  5.840038640E-07  0.00000E+00  9.000E+00
</event>
<event>
      5  10001  2.02673E+08  1.49186E+01 -1.00000E+00  1.77559E-01
      -1    -1     0     0     0   512  0.000000000E+00  0.000000000E+00  4.250898426E+01  4.250898426E+01  0.000000000E+00  0.00000E+00  9.000E+00
      21    -1     0     0   512   513  0.000000000E+00  0.000000000E+00 -1.471726107E+01  1.471726107E+01  0.000000000E+00  0.00000E+00  9.000E+00
      -1     1     1     2     0   511  1.172421138E+01 -2.124302796E+00  1.396741207E+01  1.836211575E+01  3.300000131E-01  0.00000E+00  9.000E+00
      21     1     1     2   514   513 -2.087890474E+01 -8.240473788E+00  7.587893132E+00  2.369409618E+01  2.064765462E-07  0.00000E+00  9.000E+00
      21     1     1     2   511   514  9.154693359E+00  1.036477658E+01  6.236417991E+00  1.517003340E+01  8.429369702E-08  0.00000E+00  9.000E+00
</event>
<event>
      5  10001  2.02673E+08  1.62318E+01 -1.00000E+00  1.74168E-01
      21    -1     0     0   515   512  0.000000000E+00  0.000000000E+00  4.166549094E+00  4.166549094E+00  0.000000000E+00  0.00000E+00  9.000E+00
       1    -1     0     0   511     0  0.000000000E+00  0.000000000E+00 -3.173091112E+02  3.173091112E+02  0.000000000E+00  0.00000E+00  9.000E+00
      21     1     1     2   511   512  2.362296992E+01  2.429552700E+01 -1.062542119E+02  1.115270142E+02  1.907348633E-06  0.00000E+00  9.000E+00
       1     1     1     2   513     0 -8.727110449E+00 -4.345391613E+00 -8.392285381E+01  8.448786408E+01  3.300000131E-01  0.00000E+00  9.000E+00
      21     1     1     2   515   513 -1.489585947E+01 -1.995013538E+01 -1.229654963E+02  1.254607820E+02  0.000000000E+00  0.00000E+00  9.000E+00
</event>
<event>
      5  10001  2.02673E+08  3.21459E+01 -1.00000E+00  1.50951E-01
      21    -1     0     0   513   511  0.000000000E+00  0.000000000E+00  2.856887927E+01  2.856887927E+01  0.000000000E+00  0.00000E+00  9.000E+00
       3    -1     0     0   511     0  0.000000000E+00  0.000000000E+00 -2.077262690E+02  2.077262690E+02  0.000000000E+00  0.00000E+00  9.000E+00
      21     1     1     2   513   514  3.027003174E+01  2.396083001E+01  1.032920856E+01  3.996359275E+01  4.616955931E-07  0.00000E+00  9.000E+00
       3     1     1     2   512     0 -2.990290251E+01 -3.443146505E+00 -9.557908969E+01  1.002080397E+02  5.000000000E-01  0.00000E+00  9.000E+00
      21     1     1     2   514   512 -3.671292276E-01 -2.051768350E+01 -9.390750861E+01  9.612351582E+01  1.348699152E-06  0.00000E+00  9.000E+00
</event>
<event>
      5  10001  2.02673E+08  2.33045E+01 -1.00000E+00  1.61031E-01
      21    -1     0     0   515   512  0.000000000E+00  0.000000000E+00  1.205736427E+01  1.205736427E+01  0.000000000E+00  0.00000E+00  9.000E+00
      21    -1     0     0   511   516  0.000000000E+00  0.000000000E+00 -3.941153723E+01  3.941153723E+01  0.000000000E+00  0.00000E+00  9.000E+00
      21     1     1     2   515   516  2.255884826E-01  1.374720556E+01 -6.061950110E+00  1.502610362E+01  3.371747881E-07  0.00000E+00  9.000E+00
      21     1     1     2   513   512 -5.613533430E+00 -8.532240165E+00 -2.576242052E+01  2.771305091E+01  5.840038640E-07  0.00000E+00  9.000E+00
      21     1     1     2   511   513  5.387944947E+00 -5.214965397E+00  4.470197670E+00  8.729746964E+00  1.788139343E-07  0.00000E+00  9.000E+00
</event>
<event>
      5  10001  2.02673E+08  3.48231E+00 -1.00000E+00  2.78388E-01
      21    -1     0     0   514   513  0.000000000E+00  0.000000000E+00  5.267456552E+02  5.267456552E+02  0.000000000E+00  0.00000E+00  9.000E+00
      21    -1     0     0   511   512  0.000000000E+00  0.000000000E+00 -7.749987442E+01  7.749987442E+01  0.000000000E+00  0.00000E+00  9.000E+00
      21     1     1     2   514   517 -1.026589258E+01 -1.710831404E+01  4.651420501E+02  4.655697689E+02  7.629394531E-06  0.00000E+00  9.000E+00
      21     1     1     2   511   513  7.592340899E+00  1.933958843E+01  5.959057562E+01  6.310863668E+01  2.236564522E-06  0.00000E+00  9.000E+00
      21     1     1     2   517   512  2.673551679E+00 -2.231274391E+00 -7.548684498E+01  7.556712399E+01  2.336015456E-06  0.00000E+00  9.000E+00
</event>
<event>
      5  10001  2.02673E+08  1.16686E+01 -1.00000E+00  1.88262E-01
      21    -1     0     0   511   513  0.000000000E+00  0.000000000E+00  1.121845357E+02  1.121845357E+02  0.000000000E+00  0.00000E+00  9.000E+00
      21    -1     0     0   515   512  0.000000000E+00  0.000000000E+00 -1.368136501E+01  1.368136501E+01  0.000000000E+00  0.00000E+00  9.000E+00
      21     1     1     2   511   512  2.691459746E+01 -1.790787123E+01  3.342910140E+01  4.650367974E+01  6.743495762E-07  0.00000E+00  9.000E+00
       2     1     1     2   515     0 -1.700849920E+01  1.174269881E+01  9.813232429E+00  2.288205522E+01  3.300000131E-01  0.00000E+00  9.000E+00
      -2     1     1     2     0   513 -9.906098266E+00  6.165172423E+00  5.526083681E+01  5.648016571E+01  3.300000131E-01  0.00000E+00  9.000E+00
</event>
<event>
      5  10001  2.02673E+08  2.34644E+01 -1.00000E+00  1.60802E-01
      21    -1     0     0   514   512  0.000000000E+00  0.000000000E+00  1.765904016E+01  1.765904016E+01  0.000000000E+00  0.00000E+00  9.000E+00
      21    -1     0     0   511   513  0.000000000E+00  0.000000000E+00 -1.099381597E+02  1.099381597E+02  0.000000000E+00  0.00000E+00  9.000E+00
      21     1     1     2   514   513 -3.057890236E+01  1.302056352E+01 -3.198377010E+01  4.612554491E+01  5.840038640E-07  0.00000E+00  9.000E+00
      21     1     1     2   516   512  1.523562383E+01  4.732283389E+00  8.524117546E-01  1.597639964E+01  2.591688503E-07  0.00000E+00  9.000E+00
      21     1     1     2   511   516  1.534327852E+01 -1.775284691E+01 -6.114776118E+01  6.549525530E+01  0.000000000E+00  0.00000E+00  9.000E+00
</event>
<event>
      5  10001  2.02673E+08  1.05058E+01 -1.00000E+00  1.93255E-01
      21    -1     0     0   515   513  0.000000000E+00  0.000000000E+00  3.055148809E+01  3.055148809E+01  0.000000000E+00  0.00000E+00  9.000E+00
      21    -1     0     0   511   517  0.000000000E+00  0.000000000E+00 -1.735890085E+01  1.735890085E+01  0.000000000E+00  0.00000E+00  9.000E+00
      21     1     1     2   515   517 -2.798020741E+00  2.022948950E+01  1.285319327E+01  2.413018323E+01  5.057621821E-07  0.00000E+00  9.000E+00
      21     1     1     2   511   512 -3.717470816E+00 -1.352937742E+01  2.334962126E+00  1.422377203E+01  2.528810911E-07  0.00000E+00  9.000E+00
      21     1     1     2   512   513  6.515491556E+00 -6.700112080E+00 -1.995568153E+00  9.556433664E+00  3.068336886E-07  0.00000E+00  9.000E+00
</event>
<event>
      5  10001  2.02673E+08  1.53336E+01 -1.00000E+00  1.76441E-01
      21    -1     0     0   514   511  0.000000000E+00  0.000000000E+00  4.124482008E+02  4.124482008E+02  0.000000000E+00  0.00000E+00  9.000E+00
      21    -1     0     0   516   513  0.000000000E+00  0.000000000E+00 -1.361378779E+00  1.361378779E+00  0.000000000E+00  0.00000E+00  9.000E+00
      21     1     1     2   514   513  1.620028856E+01 -1.177302801E+01  1.309691561E+02  1.324914087E+02  0.000000000E+00  0.00000E+00  9.000E+00
      21     1     1     2   516   515 -5.429462944E+00  8.154615231E+00  2.145299911E+02  2.147535655E+02  2.697398305E-06  0.00000E+00  9.000E+00
      21     1     1     2   515   511 -1.077082561E+01  3.618412779E+00  6.558767481E+01  6.656460532E+01  9.536743164E-07  0.00000E+00  9.000E+00
</event>
<event>
      5  10001  2.02673E+08  6.81577E+00 -1.00000E+00  2.17131E-01
      21    -1     0     0   512   513  0.000000000E+00  0.000000000E+00  3.807394684E+01  3.807394684E+01  0.000000000E+00  0.00000E+00  9.000E+00
      21    -1     0     0   517   511  0.000000000E+00  0.000000000E+00 -1.228816252E+01  1.228816252E+01  0.000000000E+00  0.00000E+00  9.000E+00
      21     1     1     2   512   511 -1.489054735E+01 -1.258244802E+01  1.873818863E+01  2.704008343E+01  2.384185791E-07  0.00000E+00  9.000E+00
      21     1     1     2   514   513  8.274452840E+00  1.298926180E+01  3.459710905E+00  1.578471068E+01  3.816559456E-07  0.00000E+00  9.000E+00
      21     1     1     2   517   514  6.616094512E+00 -4.068137712E-01  3.587884783E+00  7.537315255E+00  1.460009660E-07  0.00000E+00  9.000E+00
</event>
<event>
      5  10001  2.02673E+08  2.17824E+01 -1.00000E+00  1.63327E-01
      21    -1     0     0   515   511  0.000000000E+00  0.000000000E+00  2.602140443E+00  2.602140443E+00  0.000000000E+00  0.00000E+00  9.000E+00
      21    -1     0     0   517   516  0.000000000E+00  0.000000000E+00 -4.229934223E+02  4.229934223E+02  0.000000000E+00  0.00000E+00  9.000E+00
      21     1     1     2   515   516 -3.444086841E+00  2.701220648E+01 -1.555221615E+02  1.578881368E+02  0.000000000E+00  0.00000E+00  9.000E+00
      21     1     1     2   512   511  1.180113422E+01 -1.790451475E+01 -2.236268061E+02  2.246525914E+02  0.000000000E+00  0.00000E+00  9.000E+00
      21     1     1     2   517   512 -8.357047379E+00 -9.107691733E+00 -4.124231424E+01  4.305483450E+01  9.536743164E-07  0.00000E+00  9.000E+00
</event>
<event>
      5  10001  2.02673E+08  1.56974E+01 -1.00000E+00  1.75498E-01
      -5    -1     0     0     0   511  0.000000000E+00  0.000000000E+00  1.843459148E+01  1.843459148E+01  0.000000000E+00  0.00000E+00  9.000E+00
      21    -1     0     0   511   514  0.000000000E+00  0.000000000E+00 -7.368604582E+01  7.368604582E+01  0.000000000E+00  0.00000E+00  9.000E+00
      -5     1     1     2     0   513  2.350828733E+01  2.135590858E+01 -4.088174630E+01  5.199107219E+01  4.800000191E+00  0.00000E+00  9.000E+00
       4     1     1     2   513     0 -2.035213328E+01 -6.078339392E+00 -5.008270571E+00  2.187437572E+01  1.500000000E+00  0.00000E+00  9.000E+00
      -4     1     1     2     0   514 -3.156154048E+00 -1.527756919E+01 -9.361437462E+00  1.825518940E+01  1.500000000E+00  0.00000E+00  9.000E+00
</event>
<event>
      5  10001  2.02673E+08  3.37157E+01 -1.00000E+00  1.49566E-01
      21    -1     0     0   512   513  0.000000000E+00  0.000000000E+00  2.289409785E+01  2.289409785E+01  0.000000000E+00  0.00000E+00  9.000E+00
      21    -1     0     0   511   512  0.000000000E+00  0.000000000E+00 -5.527952112E+01  5.527952112E+01  0.000000000E+00  0.00000E+00  9.000E+00
      21     1     1     2   511   514  1.244937225E+01  1.288710641E+01 -2.950728666E+01  3.452165041E+01  6.743495762E-07  0.00000E+00  9.000E+00
      21     1     1     2   514   515  1.212431078E+00 -2.515879219E+01 -1.340485815E+00  2.522363407E+01  1.569934749E-07  0.00000E+00  9.000E+00
      21     1     1     2   515   513 -1.366180333E+01  1.227168578E+01 -1.537650795E+00  1.842833449E+01  3.146933329E-07  0.00000E+00  9.000E+00
</event>
<event>
      5  10001  2.02673E+08  5.61697E+01 -1.00000E+00  1.36225E-01
      21    -1     0     0   516   511  0.000000000E+00  0.000000000E+00  9.780642658E+01  9.780642658E+01  0.000000000E+00  0.00000E+00  9.000E+00
      21    -1     0     0   513   512  0.000000000E+00  0.000000000E+00 -2.421841115E+02  2.421841115E+02  0.000000000E+00  0.00000E+00  9.000E+00
      21     1     1     2   517   511  3.965457342E+01  2.451541468E+00  6.346359566E+01  7.487404906E+01  2.023048729E-06  0.00000E+00  9.000E+00
      21     1     1     2   513   517 -6.635148614E+01  4.696821326E+01 -4.512349729E+01  9.297667868E+01  1.719260824E-06  0.00000E+00  9.000E+00
      21     1     1     2   516   512  2.669691273E+01 -4.941975472E+01 -1.627177832E+02  1.721398103E+02  3.814697266E-06  0.00000E+00  9.000E+00
</event>
<event>
      5  10001  2.02673E+08  5.83243E+00 -1.00000E+00  2.27320E-01
       2    -1     0     0   513     0  0.000000000E+00  0.000000000E+00  9.770878215E+02  9.770878215E+02  0.000000000E+00  0.00000E+00  9.000E+00
      21    -1     0     0   514   511  0.000000000E+00  0.000000000E+00 -4.853773638E+00  4.853773638E+00  0.000000000E+00  0.00000E+00  9.000E+00
      21     1     1     2   513   512  2.138821308E+01 -1.110084534E+01  4.311486703E+01  4.939206601E+01  4.238221368E-06  0.00000E+00  9.000E+00
       2     1     1     2   514     0 -2.639651683E+01  8.111905084E+00  9.249929264E+02  9.254051015E+02  3.300000131E-01  0.00000E+00  9.000E+00
      21     1     1     2   512   511  5.008303749E+00  2.988940256E+00  4.126254424E+00  7.144427610E+00  2.064765462E-07  0.00000E+00  9.000E+00
</event>
<event>
      5  10001  2.02673E+08  2.97231E+00 -1.00000E+00  2.97955E-01
       2    -1     0     0   512     0  0.000000000E+00  0.000000000E+00  1.879569637E+02  1.879569637E+02  0.000000000E+00  0.00000E+00  9.000E+00
      21    -1     0     0   515   511  0.000000000E+00  0.000000000E+00 -7.318586638E+00  7.318586638E+00  0.000000000E+00  0.00000E+00  9.000E+00
      21     1     1     2   513   511  1.116699587E+01 -1.528879160E+01  1.451291078E+01  2.385526199E+01  4.129530925E-07  0.00000E+00  9.000E+00
       2     1     1     2   515     0 -1.739326956E+01  1.883711838E+01  1.598534755E+02  1.618968974E+02  3.300000131E-01  0.00000E+00  9.000E+00
      21     1     1     2   512   513  6.226273691E+00 -3.548326777E+00  6.271990789E+00  9.523390964E+00  8.429369702E-08  0.00000E+00  9.000E+00
</event>
<event>
      5  10001  2.02673E+08  9.89927E+00 -1.00000E+00  1.96208E-01
      21    -1     0     0   513   514  0.000000000E+00  0.000000000E+00  2.416587587E+02  2.416587587E+02  0.000000000E+00  0.00000E+00  9.000E+00
      -1    -1     0     0     0   513  0.000000000E+00  0.000000000E+00 -2.220655126E+01  2.220655126E+01  0.000000000E+00  0.00000E+00  9.000E+00
      -1     1     1     2     0   511  1.320280329E+01  1.552411856E+01 -1.509989156E+01  2.536588057E+01  3.300000131E-01  0.00000E+00  9.000E+00
      21     1     1     2   512   514 -1.100536833E+01 -2.306327407E+01  2.234174204E+02  2.248741348E+02  2.697398305E-06  0.00000E+00  9.000E+00
      21     1     1     2   511   512 -2.197434960E+00  7.539155507E+00  1.113467855E+01  1.362529459E+01  1.192092896E-07  0.00000E+00  9.000E+00
</event>
<event>
      5  10001  2.02673E+08  1.30855E+01 -1.00000E+00  1.83108E-01
      21    -1     0     0   515   512  0.000000000E+00  0.000000000E+00  1.509199403E+02  1.509199403E+02  0.000000000E+00  0.00000E+00  9.000E+00
      21    -1     0     0   513   516  0.000000000E+00  0.000000000E+00 -3.454216612E+01  3.454216612E+01  0.000000000E+00  0.00000E+00  9.000E+00
      21     1     1     2   515   516  1.765000273E+01 -1.277226522E+01  1.303974663E+02  1.322049642E+02  1.907348633E-06  0.00000E+00  9.000E+00
      21     1     1     2   511   512 -6.946952215E+00  2.030048902E+01  1.167162603E+01  2.442533221E+01  5.057621821E-07  0.00000E+00  9.000E+00
      21     1     1     2   513   511 -1.070305051E+01 -7.528223799E+00 -2.569131809E+01  2.883181002E+01  6.743495762E-07  0.00000E+00  9.000E+00
</event>
<event>
      5  10001  2.02673E+08  5.12536E+00 -1.00000E+00  2.36565E-01
      21    -1     0     0   513   511  0.000000000E+00  0.000000000E+00  3.946555107E+01  3.946555107E+01  0.000000000E+00  0.00000E+00  9.000E+00
      -3    -1     0     0     0   514  0.000000000E+00  0.000000000E+00 -4.781015079E+01  4.781015079E+01  0.000000000E+00  0.00000E+00  9.000E+00
      -3     1     1     2     0   511 -9.910203500E+00 -1.966927966E+01 -4.130118262E+01  4.680951166E+01  5.000000000E-01  0.00000E+00  9.000E+00
      21     1     1     2   513   512  4.458966845E+00  1.662565441E+01  2.334605930E+01  2.900574521E+01  4.768371582E-07  0.00000E+00  9.000E+00
      21     1     1     2   512   514  5.451236656E+00  3.043625251E+00  9.610523598E+00  1.146044500E+01  2.064765462E-07  0.00000E+00  9.000E+00
</event>
<event>
      5  10001  2.02673E+08  9.13875E+00 -1.00000E+00  2.00329E-01
      21    -1     0     0   512   515  0.000000000E+00  0.000000000E+00  1.225353145E+01  1.225353145E+01  0.000000000E+00  0.00000E+00  9.000E+00
      21    -1     0     0   511   514  0.000000000E+00  0.000000000E+00 -9.259757787E+01  9.259757787E+01  0.000000000E+00  0.00000E+00  9.000E+00
      -2     1     1     2     0   515 -1.769091058E+01 -1.317762949E+01 -3.479470722E+01  4.119949983E+01  3.300000131E-01  0.00000E+00  9.000E+00
      21     1     1     2   512   514  1.285316949E+01  2.092991687E+01 -9.294169635E+00  2.626113050E+01  5.196212463E-07  0.00000E+00  9.000E+00
       2     1     1     2   511     0  4.837741089E+00 -7.752287380E+00 -3.625516956E+01  3.739047898E+01  3.300000131E-01  0.00000E+00  9.000E+00
</event>
<event>
      5  10001  2.02673E+08  2.71091E+01 -1.00000E+00  1.56124E-01
      21    -1     0     0   514   511  0.000000000E+00  0.000000000E+00  3.687564722E+01  3.687564722E+01  0.000000000E+00  0.00000E+00  9.000E+00
      21    -1     0     0   513   514  0.000000000E+00  0.000000000E+00 -1.472142404E+02  1.472142404E+02  0.000000000E+00  0.00000E+00  9.000E+00
      21     1     1     2   512   511  4.461863537E+00  2.140524206E+01  2.387518287E+01  3.237463469E+01  1.066240300E-06  0.00000E+00  9.000E+00
       5     1     1     2   513     0 -2.224848222E+01 -1.166114842E+01 -1.271701248E+02  1.297160668E+02  4.800000191E+00  0.00000E+00  9.000E+00
      -5     1     1     2     0   512  1.778661868E+01 -9.744093647E+00 -7.043651225E+00  2.199918611E+01  4.800000191E+00  0.00000E+00  9.000E+00
</event>
<event>
      5  10001  2.02673E+08  1.06510E+01 -1.00000E+00  1.92587E-01
      21    -1     0     0   513   511  0.000000000E+00  0.000000000E+00  2.587445646E+02  2.587445646E+02  0.000000000E+00  0.00000E+00  9.000E+00
      21    -1     0     0   516   515  0.000000000E+00  0.000000000E+00 -4.182249441E+01  4.182249441E+01  0.000000000E+00  0.00000E+00  9.000E+00
      21     1     1     2   516   512 -1.348280238E+01  2.546179507E+01 -3.461414928E+01  4.503585569E+01  2.132480600E-06  0.00000E+00  9.000E+00
      21     1     1     2   512   511  1.194707387E+01 -1.492212147E+01  2.355342130E+02  2.363086282E+02  0.000000000E+00  0.00000E+00  9.000E+00
      21     1     1     2   513   515  1.535728514E+00 -1.053967360E+01  1.600200645E+01  1.922257506E+01  2.384185791E-07  0.00000E+00  9.000E+00
</event>
<event>
      5  10001  2.02673E+08  1.27233E+01 -1.00000E+00  1.84343E-01
       2    -1     0     0   514     0  0.000000000E+00  0.000000000E+00  6.348607021E+01  6.348607021E+01  0.000000000E+00  0.00000E+00  9.000E+00
      21    -1     0     0   517   514  0.000000000E+00  0.000000000E+00 -2.508582460E+02  2.508582460E+02  0.000000000E+00  0.00000E+00  9.000E+00
      21     1     1     2   515   511 -1.460214671E+00  4.042154396E+01 -6.068168206E+01  7.292667537E+01  2.336015456E-06  0.00000E+00  9.000E+00
      21     1     1     2   517   515  4.752755254E+00 -5.271136434E+01 -1.794773258E+02  1.871181100E+02  3.303624740E-06  0.00000E+00  9.000E+00
       2     1     1     2   511     0 -3.292540583E+00  1.228982038E+01  5.278683207E+01  5.429953083E+01  3.300000131E-01  0.00000E+00  9.000E+00
</event>
<event>
      5  10001  2.02673E+08  1.39694E+01 -1.00000E+00  1.80297E-01
      21    -1     0     0   512   511  0.000000000E+00  0.000000000E+00  2.568262157E+01  2.568262157E+01  0.000000000E+00  0.00000E+00  9.000E+00
      21    -1     0     0   514   512  0.000000000E+00  0.000000000E+00 -5.935048744E+01  5.935048744E+01  0.000000000E+00  0.00000E+00  9.000E+00
      21     1     1     2   513   516 -1.301604676E+00 -2.242632951E+01  1.128723727E+01  2.514032926E+01  6.194296387E-07  0.00000E+00  9.000E+00
      21     1     1     2   516   511 -1.265990643E+01  2.195623555E+01 -3.218447345E+01  4.096571544E+01  0.000000000E+00  0.00000E+00  9.000E+00
      21     1     1     2   514   513  1.396151110E+01  4.700939645E-01 -1.277062968E+01  1.892706430E+01  1.685873940E-07  0.00000E+00  9.000E+00
</event>
<event>
      5  10001  2.02673E+08  1.29288E+01 -1.00000E+00  1.83636E-01
      21    -1     0     0   515   511  0.000000000E+00  0.000000000E+00  1.173756980E+02  1.173756980E+02  0.000000000E+00  0.00000E+00  9.000E+00
      21    -1     0     0   514   515  0.000000000E+00  0.000000000E+00 -7.337590529E+00  7.337590529E+00  0.000000000E+00  0.00000E+00  9.000E+00
      21     1     1     2   517   511  1.553796944E+01 -1.266376510E+01  8.777835921E+01  9.003799080E+01  0.000000000E+00  0.00000E+00  9.000E+00
      21     1     1     2   512   517 -9.294362981E+00  3.245719385E+00  1.505930311E-01  9.845941083E+00  4.101458337E-07  0.00000E+00  9.000E+00
      21     1     1     2   514   512 -6.243606464E+00  9.418045711E+00  2.210915523E+01  2.482935665E+01  3.371747881E-07  0.00000E+00  9.000E+00
</event>
<event>
      5  10001  2.02673E+08  1.07370E+01 -1.00000E+00  1.92197E-01
      21    -1     0     0   513   512  0.000000000E+00  0.000000000E+00  1.835301784E+02  1.835301784E+02  0.000000000E+00  0.00000E+00  9.000E+00
      21    -1     0     0   511   516  0.000000000E+00  0.000000000E+00 -4.925055351E+01  4.925055351E+01  0.000000000E+00  0.00000E+00  9.000E+00
      21     1     1     2   513   516  8.177786183E+00 -1.830905228E+01  1.808278007E+02  1.819362281E+02  1.907348633E-06  0.00000E+00  9.000E+00
      21     1     1     2   511   515 -1.326979832E-01  3.254001294E+00 -5.553770623E+00  6.438206374E+00  3.039252468E-07  0.00000E+00  9.000E+00
      21     1     1     2   515   512 -8.045088199E+00  1.505505099E+01 -4.099440514E+01  4.440629750E+01  1.066240300E-06  0.00000E+00  9.000E+00
</event>
<event>
      5  10001  2.02673E+08  1.11238E+01 -1.00000E+00  1.90503E-01
      21    -1     0     0   514   511  0.000000000E+00  0.000000000E+00  6.136074476E+01  6.136074476E+01  0.000000000E+00  0.00000E+00  9.000E+00
      -4    -1     0     0     0   514  0.000000000E+00  0.000000000E+00 -5.898861132E+01  5.898861132E+01  0.000000000E+00  0.00000E+00  9.000E+00
      -4     1     1     2     0   513  1.154635284E+01 -1.647636558E+01 -4.892076610E+01  5.291767420E+01  1.500000000E+00  0.00000E+00  9.000E+00
      21     1     1     2   513   512 -1.674578030E+01  2.630806299E+01  4.469709524E+01  5.450106108E+01  4.768371582E-07  0.00000E+00  9.000E+00
      21     1     1     2   512   511  5.199427460E+00 -9.831697409E+00  6.595804310E+00  1.293062080E+01  1.460009660E-07  0.00000E+00  9.000E+00
</event>
<event>
      5  10001  2.02673E+08  1.09029E+01 -1.00000E+00  1.91459E-01
      21    -1     0     0   515   513  0.000000000E+00  0.000000000E+00  2.043501829E+02  2.043501829E+02  0.000000000E+00  0.00000E+00  9.000E+00
      21    -1     0     0   516   511  0.000000000E+00  0.000000000E+00 -1.371686350E+02  1.371686350E+02  0.000000000E+00  0.00000E+00  9.000E+00
      21     1     1     2   515   511  1.442047627E+01  2.271024865E+01 -1.347618585E+02  1.374207555E+02  1.907348633E-06  0.00000E+00  9.000E+00
      21     1     1     2   514   513 -2.728775779E+00 -9.907732695E+00  1.139750962E+02  1.144374586E+02  2.697398305E-06  0.00000E+00  9.000E+00
      21     1     1     2   516   514 -1.169170049E+01 -1.280251596E+01  8.796831016E+01  8.966060376E+01  1.907348633E-06  0.00000E+00  9.000E+00
</event>
<event>
      5  10001  2.02673E+08  4.78272E+00 -1.00000E+00  2.46335E-01
      21    -1     0     0   512   513  0.000000000E+00  0.000000000E+00  8.848898475E+01  8.848898475E+01  0.000000000E+00  0.00000E+00  9.000E+00
      21    -1     0     0   516   517  0.000000000E+00  0.000000000E+00 -1.016944075E+01  1.016944075E+01  0.000000000E+00  0.00000E+00  9.000E+00
      21     1     1     2   512   517  2.518822677E+01 -4.130596210E+00  3.619107820E+01  4.428659768E+01  6.743495762E-07  0.00000E+00  9.000E+00
      21     1     1     2   516   511 -2.210682147E+01  4.728188694E-01  1.475294290E+01  2.658165603E+01  4.460403188E-07  0.00000E+00  9.000E+00
      21     1     1     2   511   513 -3.081405301E+00  3.657777340E+00  2.737552291E+01  2.779017179E+01  4.768371582E-07  0.00000E+00  9.000E+00
</event>
<event>
      5  10001  2.02673E+08  1.47279E+01 -1.00000E+00  1.78088E-01
       1    -1     0     0   515     0  0.000000000E+00  0.000000000E+00  8.473312178E+02  8.473312178E+02  0.000000000E+00  0.00000E+00  9.000E+00
      21    -1     0     0   511   514  0.000000000E+00  0.000000000E+00 -8.645267228E-01  8.645267228E-01  0.000000000E+00  0.00000E+00  9.000E+00
      21     1     1     2   515   514  2.349360323E+01  2.891849433E-01  2.767318861E+02  2.777275100E+02  3.814697266E-06  0.00000E+00  9.000E+00
       1     1     1     2   512     0 -1.178815289E+01  2.360663319E-01  4.515458197E+02  4.516998478E+02  3.300000131E-01  0.00000E+00  9.000E+00
      21     1     1     2   511   512 -1.170545033E+01 -5.252512752E-01  1.181889853E+02  1.187683868E+02  1.348699152E-06  0.00000E+00  9.000E+00
</event>
<event>
      5  10001  2.02673E+08  2.70579E+01 -1.00000E+00  1.56183E-01
      -1    -1     0     0     0   513  0.000000000E+00  0.000000000E+00  1.525122993E+02  1.525122993E+02  0.000000000E+00  0.00000E+00  9.000E+00
      21    -1     0     0   513   515  0.000000000E+00  0.000000000E+00 -3.055353336E+02  3.055353336E+02  0.000000000E+00  0.00000E+00  9.000E+00
      -1     1     1     2     0   511 -2.422548365E+01  6.855957074E-01  1.442268920E+02  1.462492714E+02  3.300000131E-01  0.00000E+00  9.000E+00
      21     1     1     2   514   515  2.057201907E+01 -1.864185972E+01 -2.911720006E+02  2.924924971E+02  5.394796609E-06  0.00000E+00  9.000E+00
      21     1     1     2   511   514  3.653464579E+00  1.795626402E+01 -6.077925688E+00  1.930586443E+01  5.057621821E-07  0.00000E+00  9.000E+00
</event>
<event>
      5  10001  2.02673E+08  1.05217E+01 -1.00000E+00  1.93181E-01
      21    -1     0     0   512   513  0.000000000E+00  0.000000000E+00  2.336619119E+02  2.336619119E+02  0.000000000E+00  0.00000E+00  9.000E+00
      21    -1     0     0   511   516  0.000000000E+00  0.000000000E+00 -4.007784641E+00  4.007784641E+00  0.000000000E+00  0.00000E+00  9.000E+00
      21     1     1     2   512   516 -8.938575235E+00  1.768764300E+01  2.805744337E+01  3.435070554E+01  4.768371582E-07  0.00000E+00  9.000E+00
      21     1     1     2   515   513  8.297616602E-01 -1.423059409E+01  1.673505690E+02  1.679565755E+02  2.697398305E-06  0.00000E+00  9.000E+00
      21     1     1     2   511   515  8.108813575E+00 -3.457048916E+00  3.424611489E+01  3.536241549E+01  8.259061849E-07  0.00000E+00  9.000E+00
</event>
<event>
      5  10001  2.02673E+08  9.83664E+00 -1.00000E+00  1.96529E-01
      21    -1     0     0   514   513  0.000000000E+00  0.000000000E+00  1.159954500E+03  1.159954500E+03  0.000000000E+00  0.00000E+00  9.000E+00
      21    -1     0     0   511   512  0.000000000E+00  0.000000000E+00 -2.855021838E+00  2.855021838E+00  0.000000000E+00  0.00000E+00  9.000E+00
      21     1     1     2   515   513  2.077647328E+01  1.503679405E+01  3.444000885E+02  3.453537142E+02  5.394796609E-06  0.00000E+00  9.000E+00
      21     1     1     2   511   515 -2.498642122E+01 -6.146584308E+00  8.037361884E+02  8.041479729E+02  1.078959322E-05  0.00000E+00  9.000E+00
      21     1     1     2   514   512  4.209947939E+00 -8.890209744E+00  8.963201763E+00  1.330783517E+01  1.250277577E-06  0.00000E+00  9.000E+00
</event>
<event>
      5  10001  2.02673E+08  1.33524E+01 -1.00000E+00  1.82230E-01
      21    -1     0     0   516   513  0.000000000E+00  0.000000000E+00  1.524151858E+02  1.524151858E+02  0.000000000E+00  0.00000E+00  9.000E+00
      21    -1     0     0   517   516  0.000000000E+00  0.000000000E+00 -5.176893831E+01  5.176893831E+01  0.000000000E+00  0.00000E+00  9.000E+00
      21     1     1     2   511   512 -1.082102370E+01  2.359343050E+01  9.533594452E+00  2.765201511E+01  5.717076687E-07  0.00000E+00  9.000E+00
      21     1     1     2   517   511  1.687445396E+01 -1.169206464E+01 -3.988364364E+01  4.485706858E+01  1.066240300E-06  0.00000E+00  9.000E+00
      21     1     1     2   512   513 -6.053430259E+00 -1.190136586E+01  1.309962967E+02  1.316750404E+02  0.000000000E+00  0.00000E+00  9.000E+00
</event>
<event>
      5  10001  2.02673E+08  1.40059E+01 -1.00000E+00  1.80187E-01
      21    -1     0     0   514   513  0.000000000E+00  0.000000000E+00  1.400865791E+01  1.400865791E+01  0.000000000E+00  0.00000E+00  9.000E+00
       2    -1     0     0   512     0  0.000000000E+00  0.000000000E+00 -6.073363902E+01  6.073363902E+01  0.000000000E+00  0.00000E+00  9.000E+00
      21     1     1     2   511   513  1.794597439E-01 -3.378812273E+00  2.336135764E+00  4.111703842E+00  2.230201594E-07  0.00000E+00  9.000E+00
       2     1     1     2   514     0 -5.680563581E+00  2.279124486E+01 -4.392250827E+01  4.980969060E+01  3.300000131E-01  0.00000E+00  9.000E+00
      21     1     1     2   512   511  5.501103837E+00 -1.941243259E+01 -5.138608599E+00  2.082090249E+01  1.576990671E-07  0.00000E+00  9.000E+00
</event>
<event>
      5  10001  2.02673E+08  8.91250E+00 -1.00000E+00  2.01658E-01
      21    -1     0     0   515   513  0.000000000E+00  0.000000000E+00  3.885743609E+02  3.885743609E+02  0.000000000E+00  0.00000E+00  9.000E+00
      -3    -1     0     0     0   511  0.000000000E+00  0.000000000E+00 -1.003997195E+01  1.003997195E+01  0.000000000E+00  0.00000E+00  9.000E+00
      21     1     1     2   515   511 -1.839564745E+01  1.465860401E+01  8.158093991E+01  8.490420645E+01  1.907348633E-06  0.00000E+00  9.000E+00
      21     1     1     2   512   513  1.200815131E+01 -2.087385618E+01  3.023313693E+02  3.032889224E+02  5.394796609E-06  0.00000E+00  9.000E+00
      -3     1     1     2     0   512  6.387496138E+00  6.215252171E+00 -5.377920275E+00  1.042120401E+01  5.000000000E-01  0.00000E+00  9.000E+00
</event>
<event>
      5  10001  2.02673E+08  9.42122E+00 -1.00000E+00  1.98738E-01
      21    -1     0     0   514   511  0.000000000E+00  0.000000000E+00  1.036382251E+01  1.036382251E+01  0.000000000E+00  0.00000E+00  9.000E+00
      21    -1     0     0   517   516  0.000000000E+00  0.000000000E+00 -5.436495172E+01  5.436495172E+01  0.000000000E+00  0.00000E+00  9.000E+00
      21     1     1     2   514   516 -1.565849918E+01 -1.405662084E+01 -1.025650418E+01  2.340882449E+01  1.685873940E-07  0.00000E+00  9.000E+00
      21     1     1     2   513   511  5.587855959E+00  1.180697550E+01 -2.280796032E+01  2.628368046E+01  3.371747881E-07  0.00000E+00  9.000E+00
      21     1     1     2   517   513  1.007064322E+01  2.249645345E+00 -1.093666471E+01  1.503626929E+01  2.064765462E-07  0.00000E+00  9.000E+00
</event>
<event>
      5  10001  2.02673E+08  7.27875E+00 -1.00000E+00  2.13115E-01
       2    -1     0     0   515     0  0.000000000E+00  0.000000000E+00  1.121467578E+02  1.121467578E+02  0.000000000E+00  0.00000E+00  9.000E+00
      21    -1     0     0   512   513  0.000000000E+00  0.000000000E+00 -3.941599077E+00  3.941599077E+00  0.000000000E+00  0.00000E+00  9.000E+00
      21     1     1     2   511   513 -1.524628183E+00 -6.260946033E+00  8.246013298E+00  1.046521245E+01  2.920019320E-07  0.00000E+00  9.000E+00
       2     1     1     2   512     0  4.358342258E+00  1.965866637E+01  6.609389548E+01  6.909392325E+01  3.300000131E-01  0.00000E+00  9.000E+00
      21     1     1     2   515   511 -2.833714075E+00 -1.339772034E+01  3.386524995E+01  3.652922118E+01  6.743495762E-07  0.00000E+00  9.000E+00
</event>
<event>
      5  10001  2.02673E+08  3.94871E+00 -1.00000E+00  2.64688E-01
      -2    -1     0     0     0   511  0.000000000E+00  0.000000000E+00  2.148529714E+02  2.148529714E+02  0.000000000E+00  0.00000E+00  9.000E+00
      -5    -1     0     0     0   513  0.000000000E+00  0.000000000E+00 -4.977021905E+00  4.977021905E+00  0.000000000E+00  0.00000E+00  9.000E+00
      -5     1     1     2     0   512 -1.532024901E+01  1.089885685E+01  3.141181005E+01  3.692203844E+01  4.800000191E+00  0.00000E+00  9.000E+00
      -2     1     1     2     0   513  1.906539151E+01 -1.825149693E+01  1.651364916E+02  1.672327003E+02  3.300000131E-01  0.00000E+00  9.000E+00
      21     1     1     2   512   511 -3.745142503E+00  7.352640088E+00  1.332764790E+01  1.567525461E+01  3.371747881E-07  0.00000E+00  9.000E+00
</event>
<event>
      5  10001  2.02673E+08  1.00764E+01 -1.00000E+00  1.95318E-01
      21    -1     0     0   512   511  0.000000000E+00  0.000000000E+00  9.982201218E+01  9.982201218E+01  0.000000000E+00  0.00000E+00  9.000E+00
       2    -1     0     0   511     0  0.000000000E+00  0.000000000E+00 -1.095998609E+02  1.095998609E+02  0.000000000E+00  0.00000E+00  9.000E+00
      21     1     1     2   513   514  3.224478035E+00 -1.296324279E+01  6.187667386E+01  6.330217761E+01  9.536743164E-07  0.00000E+00  9.000E+00
       2     1     1     2   514     0 -1.373662563E+01  1.538880170E+01 -1.070999277E+02  1.090688476E+02  3.300000131E-01  0.00000E+00  9.000E+00
      21     1     1     2   512   513  1.051214760E+01 -2.425558910E+00  3.544540512E+01  3.705084786E+01  1.066240300E-06  0.00000E+00  9.000E+00
</event>
<event>
      5  10001  2.02673E+08  1.69342E+01 -1.00000E+00  1.72516E-01
      21    -1     0     0   515   514  0.000000000E+00  0.000000000E+00  7.994538923E+00  7.994538923E+00  0.000000000E+00  0.00000E+00  9.000E+00
      21    -1     0     0   511   513  0.000000000E+00  0.000000000E+00 -7.043879081E+01  7.043879081E+01  0.000000000E+00  0.00000E+00  9.000E+00
      21     1     1     2   515   513  1.421595622E+01 -9.505683337E+00 -2.320660550E+01  2.882703533E+01  0.000000000E+00  0.00000E+00  9.000E+00
      21     1     1     2   516   514 -1.913869901E+01  5.160426577E+00 -3.809204420E+01  4.294093191E+01  6.743495762E-07  0.00000E+00  9.000E+00
      21     1     1     2   511   516  4.922742782E+00  4.345256760E+00 -1.145602192E+00  6.665362495E+00  2.972772322E-07  0.00000E+00  9.000E+00
</event>
<event>
      5  10001  2.02673E+08  2.52570E+01 -1.00000E+00  1.58381E-01
      21    -1     0     0   512   513  0.000000000E+00  0.000000000E+00  1.099045558E+01  1.099045558E+01  0.000000000E+00  0.00000E+00  9.000E+00
      21    -1     0     0   511   517  0.000000000E+00  0.000000000E+00 -4.607080417E+02  4.607080417E+02  0.000000000E+00  0.00000E+00  9.000E+00
      21     1     1     2   512   517 -1.235787453E+01 -1.709043806E+01 -4.077572300E+02  4.083022885E+02  0.000000000E+00  0.00000E+00  9.000E+00
      21     1     1     2   511   514 -6.568367777E+00  1.733769888E+01 -1.347389880E+00  1.858910211E+01  1.278377210E-06  0.00000E+00  9.000E+00
      21     1     1     2   514   513  1.892624230E+01 -2.472608245E-01 -4.061296622E+01  4.480710670E+01  4.768371582E-07  0.00000E+00  9.000E+00
</event>
<event>
      5  10001  2.02673E+08  1.21390E+01 -1.00000E+00  1.86451E-01
      21    -1     0     0   511   513  0.000000000E+00  0.000000000E+00  4.979587884E+01  4.979587884E+01  0.000000000E+00  0.00000E+00  9.000E+00
       2    -1     0     0   513     0  0.000000000E+00  0.000000000E+00 -3.230417004E+01  3.230417004E+01  0.000000000E+00  0.00000E+00  9.000E+00
      21     1     1     2   512   514 -6.988817650E+00  5.249020452E+00  3.590267535E+01  3.695129071E+01  6.743495762E-07  0.00000E+00  9.000E+00
       2     1     1     2   514     0  1.867540896E+01 -7.221539673E+00 -2.464653910E+01  3.175661072E+01  3.300000131E-01  0.00000E+00  9.000E+00
      21     1     1     2   511   512 -1.168659131E+01  1.972519221E+00  6.235572533E+00  1.339214745E+01  1.685873940E-07  0.00000E+00  9.000E+00
</event>
<event>
      5  10001  2.02673E+08  2.65891E+01 -1.00000E+00  1.56735E-01
      21    -1     0     0   515   514  0.000000000E+00  0.000000000E+00  1.181797162E+01  1.181797162E+01  0.000000000E+00  0.00000E+00  9.000E+00
      21    -1     0     0   513   515  0.000000000E+00  0.000000000E+00 -5.266756984E+02  5.266756984E+02  0.000000000E+00  0.00000E+00  9.000E+00
      21     1     1     2   513   512 -2.395169542E+01  2.087125021E+01 -4.308069314E+02  4.319767412E+02  0.000000000E+00  0.00000E+00  9.000E+00
      21     1     1     2   516   514  1.052616688E+01 -2.383569398E+01 -5.319223251E+00  2.659388337E+01  6.194296387E-07  0.00000E+00  9.000E+00
      21     1     1     2   512   516  1.342552854E+01  2.964443765E+00 -7.873157215E+01  7.992304546E+01  9.536743164E-07  0.00000E+00  9.000E+00
</event>
<event>
      5  10001  2.02673E+08  7.49452E+00 -1.00000E+00  2.11379E-01
      21    -1     0     0   511   514  0.000000000E+00  0.000000000E+00  2.465658931E+00  2.465658931E+00  0.000000000E+00  0.00000E+00  9.000E+00
       2    -1     0     0   513     0  0.000000000E+00  0.000000000E+00 -8.997126087E+02  8.997126087E+02  0.000000000E+00  0.00000E+00  9.000E+00
      21     1     1     2   512   514  2.286425675E+00 -3.441520088E+01 -1.467537174E+02  1.507524042E+02  3.303624740E-06  0.00000E+00  9.000E+00
       2     1     1     2   511     0 -3.113537911E+00  2.696660373E+01 -4.366188845E+02  4.374620567E+02  3.300000131E-01  0.00000E+00  9.000E+00
      21     1     1     2   513   512  8.271122354E-01  7.448597150E+00 -3.138743479E+02  3.139638068E+02  3.814697266E-06  0.00000E+00  9.000E+00
</event>
<event>
      5  10001  2.02673E+08  4.01300E+01 -1.00000E+00  1.44722E-01
      21    -1     0     0   515   514  0.000000000E+00  0.000000000E+00  3.975869498E+01  3.975869498E+01  0.000000000E+00  0.00000E+00  9.000E+00
      21    -1     0     0   513   512  0.000000000E+00  0.000000000E+00 -4.528897998E+01  4.528897998E+01  0.000000000E+00  0.00000E+00  9.000E+00
      21     1     1     2   515   512  1.352448829E+01  2.575354414E+01 -1.195495076E+01  3.144960520E+01  4.460403188E-07  0.00000E+00  9.000E+00
      21     1     1     2   513   511  9.957983207E+00 -2.785209352E+01  2.343777285E+00  2.967143130E+01  7.102713160E-07  0.00000E+00  9.000E+00
      21     1     1     2   511   514 -2.348247150E+01  2.098549383E+00  4.080888480E+00  2.392663846E+01  1.976862425E-07  0.00000E+00  9.000E+00
</event>
<event>
      5  10001  2.02673E+08  2.81490E+01 -1.00000E+00  1.54950E-01
      21    -1     0     0   516   511  0.000000000E+00  0.000000000E+00  3.368001335E+01  3.368001335E+01  0.000000000E+00  0.00000E+00  9.000E+00
       2    -1     0     0   514     0  0.000000000E+00  0.000000000E+00 -5.254060946E+02  5.254060946E+02  0.000000000E+00  0.00000E+00  9.000E+00
      21     1     1     2   513   511  6.205377227E+00  1.364412157E+01  1.701946865E+01  2.267886842E+01  4.129530925E-07  0.00000E+00  9.000E+00
      21     1     1     2   514   513  7.984423427E+00 -3.795484014E+01 -1.457218559E+01  4.143271051E+01  6.743495762E-07  0.00000E+00  9.000E+00
       2     1     1     2   516     0 -1.418980065E+01  2.431071857E+01 -4.941733643E+02  4.949745290E+02  3.300000131E-01  0.00000E+00  9.000E+00
</event>
<event>
      5  10001  2.02673E+08  6.82229E+00 -1.00000E+00  2.17072E-01
      -1    -1     0     0     0   512  0.000000000E+00  0.000000000E+00  7.029945842E+00  7.029945842E+00  0.000000000E+00  0.00000E+00  9.000E+00
       1    -1     0     0   512     0  0.000000000E+00  0.000000000E+00 -1.612394939E+02  1.612394939E+02  0.000000000E+00  0.00000E+00  9.000E+00
      -1     1     1     2     0   511 -1.180719171E+01  1.799905487E+01 -1.656896350E+01  2.716643524E+01  3.300000131E-01  0.00000E+00  9.000E+00
       1     1     1     2   513     0  7.497914771E+00 -1.941145487E+01 -1.329856818E+02  1.346043230E+02  3.300000131E-01  0.00000E+00  9.000E+00
      21     1     1     2   511   513  4.309276942E+00  1.412399997E+00 -4.654902749E+00  6.498681491E+00  1.976862425E-07  0.00000E+00  9.000E+00
</event>
<event>
      5  10001  2.02673E+08  1.05515E+01 -1.00000E+00  1.93044E-01
       2    -1     0     0   511     0  0.000000000E+00  0.000000000E+00  2.269454840E+02  2.269454840E+02  0.000000000E+00  0.00000E+00  9.000E+00
      21    -1     0     0   514   513  0.000000000E+00  0.000000000E+00 -9.188325247E+01  9.188325247E+01  0.000000000E+00  0.00000E+00  9.000E+00
      21     1     1     2   512   513  5.637066346E+00  1.092609979E+01 -8.191544006E+01  8.283293725E+01  9.536743164E-07  0.00000E+00  9.000E+00
       2     1     1     2   514     0 -1.615577635E+01 -1.217314068E+01  2.229296113E+02  2.238457392E+02  3.300000131E-01  0.00000E+00  9.000E+00
      21     1     1     2   511   512  1.051871000E+01  1.247040889E+00 -5.951939747E+00  1.215005999E+01  0.000000000E+00  0.00000E+00  9.000E+00
</event>
<event>
      5  10001  2.02673E+08  7.95241E+00 -1.00000E+00  2.07944E-01
      21    -1     0     0   515   513  0.000000000E+00  0.000000000E+00  5.941368406E+01  5.941368406E+01  0.000000000E+00  0.00000E+00  9.000E+00
      21    -1     0     0   516   515  0.000000000E+00  0.000000000E+00 -6.562647091E+02  6.562647091E+02  0.000000000E+00  0.00000E+00  9.000E+00
      21     1     1     2   516   512  1.322974513E+01  2.383116470E+01 -6.525358358E+02  6.531048672E+02  1.078959322E-05  0.00000E+00  9.000E+00
      21     1     1     2   514   513 -4.354138585E+00 -1.592647032E+01  2.921508723E+01  3.355789477E+01  1.261592536E-06  0.00000E+00  9.000E+00
      21     1     1     2   512   514 -8.875606547E+00 -7.904694380E+00  2.646972357E+01  2.901563114E+01  1.651812370E-06  0.00000E+00  9.000E+00
</event>
<event>
      5  10001  2.02673E+08  1.85349E+01 -1.00000E+00  1.69099E-01
      21    -1     0     0   511   514  0.000000000E+00  0.000000000E+00  9.375785460E+01  9.375785460E+01  0.000000000E+00  0.00000E+00  9.000E+00
      21    -1     0     0   512   513  0.000000000E+00  0.000000000E+00 -1.000865676E+02  1.000865676E+02  0.000000000E+00  0.00000E+00  9.000E+00
      21     1     1     2   511   517  2.154022798E+01 -1.594494680E+01  7.603832838E+01  8.062288839E+01  1.348699152E-06  0.00000E+00  9.000E+00
      21     1     1     2   512   514 -4.005139044E+01  1.500667677E+01 -1.828902216E+01  4.651669115E+01  5.840038640E-07  0.00000E+00  9.000E+00
      21     1     1     2   517   513  1.851116246E+01  9.382700328E-01 -6.407801925E+01  6.670484269E+01  0.000000000E+00  0.00000E+00  9.000E+00
</event>
<event>
      5  10001  2.02673E+08  2.03138E+01 -1.00000E+00  1.65772E-01
      21    -1     0     0   515   512  0.000000000E+00  0.000000000E+00  1.679221011E+02  1.679221011E+02  0.000000000E+00  0.00000E+00  9.000E+00
      21    -1     0     0   517   516  0.000000000E+00  0.000000000E+00 -3.265168699E+00  3.265168699E+00  0.000000000E+00  0.00000E+00  9.000E+00
      21     1     1     2   515   516 -4.820392339E+00  1.536253771E+01  6.193272648E+01  6.399145534E+01  6.743495762E-07  0.00000E+00  9.000E+00
      21     1     1     2   517   511  1.055478975E+00 -1.452726403E+01  2.203162803E+01  2.641113534E+01  2.384185791E-07  0.00000E+00  9.000E+00
      21     1     1     2   511   512  3.764913364E+00 -8.352736811E-01  8.069257792E+01  8.078467915E+01  9.536743164E-07  0.00000E+00  9.000E+00
</event>
<event>
      5  10001  2.02673E+08  1.34376E+01 -1.00000E+00  1.81955E-01
      21    -1     0     0   513   516  0.000000000E+00  0.000000000E+00  2.498459181E+02  2.498459181E+02  0.000000000E+00  0.00000E+00  9.000E+00
      21    -1     0     0   514   512  0.000000000E+00  0.000000000E+00 -4.866682056E+00  4.866682056E+00  0.000000000E+00  0.00000E+00  9.000E+00
      21     1     1     2   513   512  1.107910931E+01  1.666417498E+01  2.058748171E+02  2.068450669E+02  2.697398305E-06  0.00000E+00  9.000E+00
      21     1     1     2   514   515 -8.362409568E+00 -4.698700737E+00  3.504142381E+00  1.021208579E+01  3.500980176E-07  0.00000E+00  9.000E+00
      21     1     1     2   515   516 -2.716699740E+00 -1.196547425E+01  3.560027661E+01  3.765544750E+01  4.768371582E-07  0.00000E+00  9.000E+00
</event>
<event>
      5  10001  2.02673E+08  2.05238E+01 -1.00000E+00  1.65407E-01
      21    -1     0     0   511   516  0.000000000E+00  0.000000000E+00  1.554690193E+02  1.554690193E+02  0.000000000E+00  0.00000E+00  9.000E+00
      -3    -1     0     0     0   511  0.000000000E+00  0.000000000E+00 -5.416377065E+01  5.416377065E+01  0.000000000E+00  0.00000E+00  9.000E+00
      -3     1     1     2     0   513 -2.257348385E-01 -2.445644982E+01 -4.779848777E+01  5.369463965E+01  5.000000000E-01  0.00000E+00  9.000E+00
      21     1     1     2   512   516 -1.351699825E+01  1.390612814E+01  1.235626026E+02  1.250752030E+02  0.000000000E+00  0.00000E+00  9.000E+00
      21     1     1     2   513   512  1.374273309E+01  1.055032168E+01  2.554113379E+01  3.086294730E+01  3.371747881E-07  0.00000E+00  9.000E+00
</event>
<event>
      5  10001  2.02673E+08  4.68466E+00 -1.00000E+00  2.48189E-01
       1    -1     0     0   514     0  0.000000000E+00  0.000000000E+00  7.984917197E+01  7.984917197E+01  0.000000000E+00  0.00000E+00  9.000E+00
      21    -1     0     0   513   515  0.000000000E+00  0.000000000E+00 -1.676696556E+01  1.676696556E+01  0.000000000E+00  0.00000E+00  9.000E+00
      21     1     1     2   514   515 -2.280316797E+01  4.733156316E+00  5.727490925E+00  2.398314805E+01  2.795705652E-07  0.00000E+00  9.000E+00
      21     1     1     2   513   512  1.815615213E+01 -4.141570069E+00  3.968569714E+00  1.904069349E+01  1.737759082E-07  0.00000E+00  9.000E+00
       1     1     1     2   512     0  4.647015831E+00 -5.915862471E-01  5.338614577E+01  5.359229600E+01  3.300000131E-01  0.00000E+00  9.000E+00
</event>
<event>
      5  10001  2.02673E+08  8.78887E+00 -1.00000E+00  2.02407E-01
      21    -1     0     0   511   513  0.000000000E+00  0.000000000E+00  1.206325493E+01  1.206325493E+01  0.000000000E+00  0.00000E+00  9.000E+00
      21    -1     0     0   516   511  0.000000000E+00  0.000000000E+00 -1.943639565E+02  1.943639565E+02  0.000000000E+00  0.00000E+00  9.000E+00
      21     1     1     2   516   517 -4.392266862E+01 -4.969891295E+00 -1.282363580E+02  1.356409383E+02  1.907348633E-06  0.00000E+00  9.000E+00
      21     1     1     2   514   513  2.617528902E+01  6.445381235E+00 -2.538890172E+01  3.703086584E+01  6.743495762E-07  0.00000E+00  9.000E+00
      21     1     1     2   517   514  1.774737961E+01 -1.475489939E+00 -2.867544184E+01  3.375540725E+01  4.768371582E-07  0.00000E+00  9.000E+00
</event>
<event>
      5  10001  2.02673E+08  4.24560E+00 -1.00000E+00  2.57415E-01
       2    -1     0     0   511     0  0.000000000E+00  0.000000000E+00  6.436331146E+01  6.436331146E+01  0.000000000E+00  0.00000E+00  9.000E+00
      21    -1     0     0   512   513  0.000000000E+00  0.000000000E+00 -4.716338520E+01  4.716338520E+01  0.000000000E+00  0.00000E+00  9.000E+00
       2     1     1     2   512     0  1.281897391E+01  1.744957234E+01  2.029403437E+01  2.967777616E+01  3.300000131E-01  0.00000E+00  9.000E+00
       3     1     1     2   511     0 -9.397890536E+00 -1.996327406E+01  3.615970929E+01  4.236304089E+01  5.000000000E-01  0.00000E+00  9.000E+00
      -3     1     1     2     0   513 -3.421083372E+00  2.513701729E+00 -3.925381740E+01  3.948587961E+01  5.000000000E-01  0.00000E+00  9.000E+00
</event>
<event>
      5  10001  2.02673E+08  3.70536E+01 -1.00000E+00  1.46899E-01
      -2    -1     0     0     0   514  0.000000000E+00  0.000000000E+00  1.253871212E+01  1.253871212E+01  0.000000000E+00  0.00000E+00  9.000E+00
      21    -1     0     0   515   511  0.000000000E+00  0.000000000E+00 -1.228817232E+02  1.228817232E+02  0.000000000E+00  0.00000E+00  9.000E+00
      21     1     1     2   512   511  7.573738510E+00  1.042658472E+00 -1.935113173E+01  2.080660835E+01  2.384185791E-07  0.00000E+00  9.000E+00
      21     1     1     2   515   514 -3.048562330E+01  1.948533623E+01 -6.477058177E+01  7.419083379E+01  0.000000000E+00  0.00000E+00  9.000E+00
      -2     1     1     2     0   512  2.291188479E+01 -2.052799470E+01 -2.622129761E+01  4.042299320E+01  3.300000131E-01  0.00000E+00  9.000E+00
</event>
<event>
      5  10001  2.02673E+08  2.33700E+01 -1.00000E+00  1.60937E-01
      -5    -1     0     0     0   512  0.000000000E+00  0.000000000E+00  2.602958417E+01  2.602958417E+01  0.000000000E+00  0.00000E+00  9.000E+00
       2    -1     0     0   512     0  0.000000000E+00  0.000000000E+00 -3.592535147E+02  3.592535147E+02  0.000000000E+00  0.00000E+00  9.000E+00
      -5     1     1     2     0   513 -1.899398121E+01 -1.039235153E+01  2.078314436E+01  3.039327860E+01  4.800000191E+00  0.00000E+00  9.000E+00
      21     1     1     2   513   511  9.028061273E+00  6.639590775E-01 -7.657753281E+01  7.711073377E+01  9.536743164E-07  0.00000E+00  9.000E+00
       2     1     1     2   511     0  9.965919938E+00  9.728392453E+00 -2.774295420E+02  2.777790865E+02  3.300000131E-01  0.00000E+00  9.000E+00
</event>
<event>
      5  10001  2.02673E+08  4.83424E+01 -1.00000E+00  1.39887E-01
      21    -1     0     0   514   512  0.000000000E+00  0.000000000E+00  3.468876976E+00  3.468876976E+00  0.000000000E+00  0.00000E+00  9.000E+00
      21    -1     0     0   511   514  0.000000000E+00  0.000000000E+00 -1.890972063E+02  1.890972063E+02  0.000000000E+00  0.00000E+00  9.000E+00
      -1     1     1     2     0   513  4.164464640E+00 -1.201403560E+00 -1.603343244E+02  1.603932375E+02  3.300000131E-01  0.00000E+00  9.000E+00
       1     1     1     2   511     0  4.540610686E+00 -1.861171801E+00 -2.173126890E+01  2.228088989E+01  3.300000131E-01  0.00000E+00  9.000E+00
      21     1     1     2   513   512 -8.705075326E+00  3.062575361E+00 -3.562735999E+00  9.891955927E+00  4.749708608E-07  0.00000E+00  9.000E+00
</event>
<event>
      5  10001  2.02673E+08  1.37805E+01 -1.00000E+00  1.80875E-01
      21    -1     0     0   515   516  0.000000000E+00  0.000000000E+00  3.074483073E+02  3.074483073E+02  0.000000000E+00  0.00000E+00  9.000E+00
      21    -1     0     0   512   515  0.000000000E+00  0.000000000E+00 -2.680740516E+01  2.680740516E+01  0.000000000E+00  0.00000E+00  9.000E+00
      21     1     1     2   511   516 -9.602166816E+00  2.283376108E+01  2.859379615E+02  2.870088850E+02  6.607249480E-06  0.00000E+00  9.000E+00
      21     1     1     2   514   511  8.532830925E-01 -1.770159661E+01 -2.166546697E+01  2.799048183E+01  1.261592536E-06  0.00000E+00  9.000E+00
      21     1     1     2   512   514  8.748883723E+00 -5.132164478E+00  1.636840764E+01  1.925634564E+01  0.000000000E+00  0.00000E+00  9.000E+00
</event>
<event>
      5  10001  2.02673E+08  9.28602E+00 -1.00000E+00  1.99490E-01
       2    -1     0     0   512     0  0.000000000E+00  0.000000000E+00  7.551057342E+02  7.551057342E+02  0.000000000E+00  0.00000E+00  9.000E+00
      21    -1     0     0   513   511  0.000000000E+00  0.000000000E+00 -2.699585129E+00  2.699585129E+00  0.000000000E+00  0.00000E+00  9.000E+00
      21     1     1     2   512   514  1.687527658E+01  2.510815461E+01  3.659324362E+02  3.671808032E+02  0.000000000E+00  0.00000E+00  9.000E+00
       2     1     1     2   513     0 -2.006925263E+01 -1.638890751E+01  3.748615689E+02  3.757561389E+02  3.300000131E-01  0.00000E+00  9.000E+00
      21     1     1     2   514   511  3.193976051E+00 -8.719247099E+00  1.161214397E+01  1.486837720E+01  0.000000000E+00  0.00000E+00  9.000E+00
</event>
<event>
      5  10001  2.02673E+08  2.09426E+01 -1.00000E+00  1.64695E-01
      -2    -1     0     0     0   515  0.000000000E+00  0.000000000E+00  4.798664472E+00  4.798664472E+00  0.000000000E+00  0.00000E+00  9.000E+00
      21    -1     0     0   512   511  0.000000000E+00  0.000000000E+00 -1.159081060E+02  1.159081060E+02  0.000000000E+00  0.00000E+00  9.000E+00
      -2     1     1     2     0   511 -4.888798650E+00 -1.382303828E+01 -2.168940746E+01  2.618236115E+01  3.300000131E-01  0.00000E+00  9.000E+00
      21     1     1     2   512   513  1.497142403E+01  1.243870048E+01 -4.640563158E+01  5.032243485E+01  9.536743164E-07  0.00000E+00  9.000E+00
      21     1     1     2   513   515 -1.008262538E+01  1.384337799E+00 -4.301440252E+01  4.420197450E+01  0.000000000E+00  0.00000E+00  9.000E+00
</event>
<event>
      5  10001  2.02673E+08  4.59990E+00 -1.00000E+00  2.49848E-01
      21    -1     0     0   512   511  0.000000000E+00  0.000000000E+00  1.553264745E+00  1.553264745E+00  0.000000000E+00  0.00000E+00  9.000E+00
      21    -1     0     0   516   515  0.000000000E+00  0.000000000E+00 -1.032420705E+03  1.032420705E+03  0.000000000E+00  0.00000E+00  9.000E+00
      21     1     1     2   514   515 -2.626008892E+00  2.445667109E+01 -6.430236513E+02  6.434939323E+02  1.078959322E-05  0.00000E+00  9.000E+00
      21     1     1     2   516   511  2.732147397E+00 -1.985799771E+01 -3.838942082E+02  3.844171794E+02  7.629394531E-06  0.00000E+00  9.000E+00
      21     1     1     2   512   514 -1.061385047E-01 -4.598673387E+00 -3.949581111E+00  6.062858505E+00  5.885487097E-07  0.00000E+00  9.000E+00
</event>
<event>
      5  10001  2.02673E+08  2.18107E+01 -1.00000E+00  1.63282E-01
      21    -1     0     0   513   515  0.000000000E+00  0.000000000E+00  1.245456754E+01  1.245456754E+01  0.000000000E+00  0.00000E+00  9.000E+00
      21    -1     0     0   517   513  0.000000000E+00  0.000000000E+00 -5.826040573E+01  5.826040573E+01  0.000000000E+00  0.00000E+00  9.000E+00
      21     1     1     2   517   514  5.143515941E+00  1.913500957E+01 -3.995244653E+01  4.459599008E+01  6.743495762E-07  0.00000E+00  9.000E+00
      21     1     1     2   511   515 -6.269906367E+00 -8.036044823E+00 -9.940985386E+00  1.423772920E+01  1.685873940E-07  0.00000E+00  9.000E+00
      21     1     1     2   514   511  1.126390426E+00 -1.109896475E+01  4.087593730E+00  1.188125399E+01  1.192092896E-07  0.00000E+00  9.000E+00
</event>
<event>
      5  10001  2.02673E+08  2.95224E+01 -1.00000E+00  1.53490E-01
      21    -1     0     0   512   515  0.000000000E+00  0.000000000E+00  9.735498391E+01  9.735498391E+01  0.000000000E+00  0.00000E+00  9.000E+00
      21    -1     0     0   516   512  0.000000000E+00  0.000000000E+00 -2.350966887E+02  2.350966887E+02  0.000000000E+00  0.00000E+00  9.000E+00
      21     1     1     2   511   515 -1.251025470E+01 -7.297003755E+01  6.590913042E+01  9.912187612E+01  2.861022949E-06  0.00000E+00  9.000E+00
      21     1     1     2   516   513 -2.406455598E+00  7.815374096E+01 -2.029849836E+02  2.175240258E+02  4.672030912E-06  0.00000E+00  9.000E+00
      21     1     1     2   513   511  1.491671029E+01 -5.183703407E+00 -6.658516134E-01  1.580577064E+01  2.388837865E-07  0.00000E+00  9.000E+00
</event>
<event>
      5  10001  2.02673E+08  1.31160E+01 -1.00000E+00  1.83006E-01
      21    -1     0     0   513   514  0.000000000E+00  0.000000000E+00  1.456822185E+01  1.456822185E+01  0.000000000E+00  0.00000E+00  9.000E+00
       2    -1     0     0   512     0  0.000000000E+00  0.000000000E+00 -1.452836870E+02  1.452836870E+02  0.000000000E+00  0.00000E+00  9.000E+00
      21     1     1     2   515   514 -2.107775032E+01 -1.070112763E+01 -6.729259271E+00  2.457780750E+01  2.064765462E-07  0.00000E+00  9.000E+00
       2     1     1     2   513     0  2.696659168E+01 -1.018252043E+00 -2.990129318E+01  4.027940091E+01  3.300000131E-01  0.00000E+00  9.000E+00
      21     1     1     2   512   515 -5.888841354E+00  1.171937968E+01 -9.408491269E+01  9.499470042E+01  1.348699152E-06  0.00000E+00  9.000E+00
</event>
<event>
      5  10001  2.02673E+08  1.30709E+01 -1.00000E+00  1.83157E-01
      21    -1     0     0   513   514  0.000000000E+00  0.000000000E+00  2.196124216E+01  2.196124216E+01  0.000000000E+00  0.00000E+00  9.000E+00
      21    -1     0     0   512   515  0.000000000E+00  0.000000000E+00 -1.598496090E+02  1.598496090E+02  0.000000000E+00  0.00000E+00  9.000E+00
      21     1     1     2   511   515 -4.690398050E+00  2.509729128E+01  8.075846537E+00  2.677859519E+01  1.086048314E-06  0.00000E+00  9.000E+00
      21     1     1     2   512   514 -8.102335944E+00 -2.777957427E+01 -1.347129525E+02  1.377858199E+02  3.303624740E-06  0.00000E+00  9.000E+00
      21     1     1     2   513   511  1.279273399E+01  2.682282996E+00 -1.125126085E+01  1.724643603E+01  1.192092896E-07  0.00000E+00  9.000E+00
</event>
<event>
      5  10001  2.02673E+08  8.13734E+01 -1.00000E+00  1.27968E-01
       1    -1     0     0   511     0  0.000000000E+00  0.000000000E+00  4.025130377E+02  4.025130377E+02  0.000000000E+00  0.00000E+00  9.000E+00
      21    -1     0     0   516   511  0.000000000E+00  0.000000000E+00 -5.491282431E+01  5.491282431E+01  0.000000000E+00  0.00000E+00  9.000E+00
      21     1     1     2   516   512  5.470218881E+00  8.186905816E+00 -1.212546883E+00  9.920634627E+00  3.695367803E-07  0.00000E+00  9.000E+00
       1     1     1     2   513     0 -1.997042131E+01 -1.878837272E+00  3.966321412E+02  3.971391596E+02  3.300000131E-01  0.00000E+00  9.000E+00
      21     1     1     2   512   513  1.450020243E+01 -6.308068544E+00 -4.781938088E+01  5.036606782E+01  3.814697266E-06  0.00000E+00  9.000E+00
</event>
<event>
      5  10001  2.02673E+08  3.04078E+00 -1.00000E+00  2.94962E-01
      21    -1     0     0   514   513  0.000000000E+00  0.000000000E+00  1.418627177E+00  1.418627177E+00  0.000000000E+00  0.00000E+00  9.000E+00
      21    -1     0     0   511   515  0.000000000E+00  0.000000000E+00 -5.885730749E+02  5.885730749E+02  0.000000000E+00  0.00000E+00  9.000E+00
      21     1     1     2   514   515 -2.653053770E+01 -5.105211853E+00 -2.480182071E+02  2.494853978E+02  5.394796609E-06  0.00000E+00  9.000E+00
      21     1     1     2   512   513  2.348984748E+01  5.081286689E+00 -2.160656832E+02  2.173981874E+02  2.697398305E-06  0.00000E+00  9.000E+00
      21     1     1     2   511   512  3.040690219E+00  2.392516400E-02 -1.230705574E+02  1.231081170E+02  2.336015456E-06  0.00000E+00  9.000E+00
</event>
<event>
      5  10001  2.02673E+08  2.40796E+01 -1.00000E+00  1.59942E-01
      21    -1     0     0   516   513  0.000000000E+00  0.000000000E+00  1.915663187E+01  1.915663187E+01  0.000000000E+00  0.00000E+00  9.000E+00
      21    -1     0     0   511   516  0.000000000E+00  0.000000000E+00 -2.727284021E+01  2.727284021E+01  0.000000000E+00  0.00000E+00  9.000E+00
      21     1     1     2   512   513  2.858583999E+00  1.783586822E+01 -3.351675667E-01  1.806659998E+01  2.201076038E-07  0.00000E+00  9.000E+00
      21     1     1     2   514   512 -6.688889189E+00 -6.022692937E+00  5.202686163E+00  1.039624991E+01  2.598106231E-07  0.00000E+00  9.000E+00
      21     1     1     2   511   514  3.830305189E+00 -1.181317528E+01 -1.298372693E+01  1.796662219E+01  4.129530925E-07  0.00000E+00  9.000E+00
</event>
<event>
      5  10001  2.02673E+08  1.19905E+01 -1.00000E+00  1.87011E-01
      21    -1     0     0   512   513  0.000000000E+00  0.000000000E+00  2.723043074E+01  2.723043074E+01  0.000000000E+00  0.00000E+00  9.000E+00
      21    -1     0     0   511   517  0.000000000E+00  0.000000000E+00 -2.421817706E+02  2.421817706E+02  0.000000000E+00  0.00000E+00  9.000E+00
      21     1     1     2   515   517  3.876541718E+01  1.039843390E+01 -1.464694323E+02  1.518689553E+02  0.000000000E+00  0.00000E+00  9.000E+00
      21     1     1     2   511   513 -3.163133871E+01 -7.611289823E-01 -8.862374626E+01  9.410254676E+01  9.536743164E-07  0.00000E+00  9.000E+00
      21     1     1     2   512   515 -7.134078468E+00 -9.637304921E+00  2.014183862E+01  2.344069932E+01  9.830249847E-07  0.00000E+00  9.000E+00
</event>
<event>
      5  10001  2.02673E+08  1.24958E+01 -1.00000E+00  1.85146E-01
      21    -1     0     0   515   511  0.000000000E+00  0.000000000E+00  3.542543087E+01  3.542543087E+01  0.000000000E+00  0.00000E+00  9.000E+00
      21    -1     0     0   514   513  0.000000000E+00  0.000000000E+00 -3.896169456E+02  3.896169456E+02  0.000000000E+00  0.00000E+00  9.000E+00
      -4     1     1     2     0   511  3.341021459E+01 -3.138085600E+01  1.743604464E+01  4.906389930E+01  1.500000000E+00  0.00000E+00  9.000E+00
       4     1     1     2   514     0 -2.530514536E+01  2.187247570E+01 -1.374962927E+02  1.415140844E+02  1.500000000E+00  0.00000E+00  9.000E+00
      21     1     1     2   515   513 -8.105069224E+00  9.508380295E+00 -2.341312667E+02  2.344643928E+02  3.814697266E-06  0.00000E+00  9.000E+00
</event>
<event>
      5  10001  2.02673E+08  6.95679E+00 -1.00000E+00  2.15863E-01
      21    -1     0     0   512   514  0.000000000E+00  0.000000000E+00  1.281496136E+02  1.281496136E+02  0.000000000E+00  0.00000E+00  9.000E+00
      21    -1     0     0   516   512  0.000000000E+00  0.000000000E+00 -9.441295697E+00  9.441295697E+00  0.000000000E+00  0.00000E+00  9.000E+00
      21     1     1     2   516   513  2.676818229E+01  2.884920919E+00  4.085305676E+01  4.892678815E+01  4.768371582E-07  0.00000E+00  9.000E+00
      21     1     1     2   513   511 -2.084661013E+01  7.663732413E-01  1.566905019E+01  2.608999072E+01  3.371747881E-07  0.00000E+00  9.000E+00
      21     1     1     2   511   514 -5.921572161E+00 -3.651294161E+00  6.218621098E+01  6.257413045E+01  9.536743164E-07  0.00000E+00  9.000E+00
</event>
<event>
      5  10001  2.02673E+08  3.61478E+01 -1.00000E+00  1.47589E-01
      21    -1     0     0   515   513  0.000000000E+00  0.000000000E+00  3.172841299E+01  3.172841299E+01  0.000000000E+00  0.00000E+00  9.000E+00
      21    -1     0     0   514   515  0.000000000E+00  0.000000000E+00 -2.898648684E+01  2.898648684E+01  0.000000000E+00  0.00000E+00  9.000E+00
      21     1     1     2   514   516 -1.104093418E+01  1.555309341E+01 -1.643885114E+01  2.518008676E+01  3.371747881E-07  0.00000E+00  9.000E+00
      21     1     1     2   512   513  2.102646963E+00 -8.770821275E+00 -3.934605319E+00  9.840200664E+00  1.576990671E-07  0.00000E+00  9.000E+00
      21     1     1     2   516   512  8.938287213E+00 -6.782272135E+00  2.311538262E+01  2.569461241E+01  3.371747881E-07  0.00000E+00  9.000E+00
</event>
<event>
      5  10001  2.02673E+08  2.68238E+01 -1.00000E+00  1.56457E-01
       2    -1     0     0   515     0  0.000000000E+00  0.000000000E+00  4.369978928E+02  4.369978928E+02  0.000000000E+00  0.00000E+00  9.000E+00
      21    -1     0     0   512   515  0.000000000E+00  0.000000000E+00 -3.847731567E+00  3.847731567E+00  0.000000000E+00  0.00000E+00  9.000E+00
      21     1     1     2   513   511 -3.987755423E+00 -1.800315545E+01  1.948615747E+02  1.957320850E+02  0.000000000E+00  0.00000E+00  9.000E+00
       2     1     1     2   511     0  2.351060295E+01  2.705273561E+01  1.549818871E+02  1.590726035E+02  3.300000131E-01  0.00000E+00  9.000E+00
      21     1     1     2   512   513 -1.952284752E+01 -9.049580165E+00  8.330669946E+01  8.604093590E+01  0.000000000E+00  0.00000E+00  9.000E+00
</event>
<event>
      5  10001  2.02673E+08  1.21769E+01 -1.00000E+00  1.86310E-01
      21    -1     0     0   512   514  0.000000000E+00  0.000000000E+00  2.805179723E+01  2.805179723E+01  0.000000000E+00  0.00000E+00  9.000E+00
       4    -1     0     0   511     0  0.000000000E+00  0.000000000E+00 -2.638393142E+01  2.638393142E+01  0.000000000E+00  0.00000E+00  9.000E+00
      21     1     1     2   511   515  1.181617346E+01 -1.822434672E+00  4.739047439E+00  1.286086288E+01  1.976862425E-07  0.00000E+00  9.000E+00
       4     1     1     2   512     0 -2.396000874E+01 -7.575673816E+00 -6.148557505E+00  2.591384981E+01  1.500000000E+00  0.00000E+00  9.000E+00
      21     1     1     2   515   514  1.214383528E+01  9.398108488E+00  3.077375870E+00  1.566101596E+01  3.793216366E-07  0.00000E+00  9.000E+00
</event>
<event>
      5  10001  2.02673E+08  9.99675E+00 -1.00000E+00  1.95715E-01
      21    -1     0     0   513   514  0.000000000E+00  0.000000000E+00  1.594841406E+00  1.594841406E+00  0.000000000E+00  0.00000E+00  9.000E+00
       2    -1     0     0   512     0  0.000000000E+00  0.000000000E+00 -6.398686000E+02  6.398686000E+02  0.000000000E+00  0.00000E+00  9.000E+00
      21     1     1     2   512   514 -1.939510605E+01 -1.496413122E+01 -1.145692450E+02  1.171588975E+02  2.336015456E-06  0.00000E+00  9.000E+00
       2     1     1     2   511     0  3.690393774E+00  1.678153279E+00 -1.292844626E+02  1.293484301E+02  3.300000131E-01  0.00000E+00  9.000E+00
      21     1     1     2   513   511  1.570471227E+01  1.328597794E+01 -3.944200511E+02  3.949561139E+02  7.629394531E-06  0.00000E+00  9.000E+00
</event>
<event>
      5  10001  2.02673E+08  1.95154E+01 -1.00000E+00  1.67211E-01
      -1    -1     0     0     0   515  0.000000000E+00  0.000000000E+00  1.475263015E+02  1.475263015E+02  0.000000000E+00  0.00000E+00  9.000E+00
      21    -1     0     0   515   513  0.000000000E+00  0.000000000E+00 -3.439492436E+00  3.439492436E+00  0.000000000E+00  0.00000E+00  9.000E+00
      -1     1     1     2     0   512  3.486195316E-01 -2.163914265E+01  5.933354340E+01  6.315815309E+01  3.300000131E-01  0.00000E+00  9.000E+00
      21     1     1     2   514   513 -1.279082993E+00  2.196848660E+00  3.982735024E+00  4.724867788E+00  5.960464478E-08  0.00000E+00  9.000E+00
      21     1     1     2   512   514  9.304634617E-01  1.944229399E+01  8.077053064E+01  8.308277305E+01  1.651812370E-06  0.00000E+00  9.000E+00
</event>
<event>
      5  10001  2.02673E+08  1.18171E+01 -1.00000E+00  1.87679E-01
      21    -1     0     0   513   514  0.000000000E+00  0.000000000E+00  2.766817382E+01  2.766817382E+01  0.000000000E+00  0.00000E+00  9.000E+00
      21    -1     0     0   512   516  0.000000000E+00  0.000000000E+00 -1.275606803E+02  1.275606803E+02  0.000000000E+00  0.00000E+00  9.000E+00
      21     1     1     2   511   516  2.033735623E+01 -3.952634862E+00  1.615551793E+01  2.627226942E+01  6.743495762E-07  0.00000E+00  9.000E+00
      21     1     1     2   512   514 -1.515470672E+01  1.457262487E+01 -1.152068872E+02  1.171095785E+02  1.907348633E-06  0.00000E+00  9.000E+00
      21     1     1     2   513   511 -5.182649512E+00 -1.061999001E+01 -8.411372514E-01  1.184700619E+01  4.080851059E-08  0.00000E+00  9.000E+00
</event>
<event>
      5  10001  2.02673E+08  8.21828E+00 -1.00000E+00  2.06089E-01
      21    -1     0     0   515   512  0.000000000E+00  0.000000000E+00  4.615155935E+02  4.615155935E+02  0.000000000E+00  0.00000E+00  9.000E+00
      21    -1     0     0   514   515  0.000000000E+00  0.000000000E+00 -1.788737338E+00  1.788737338E+00  0.000000000E+00  0.00000E+00  9.000E+00
      21     1     1     2   517   511  1.299592619E+01 -1.219419997E+01  7.350941967E+01  7.563879554E+01  1.907348633E-06  0.00000E+00  9.000E+00
      21     1     1     2   511   512 -1.308532936E+01  2.041199467E+01  3.242936310E+02  3.251987615E+02  3.814697266E-06  0.00000E+00  9.000E+00
      21     1     1     2   514   517  8.940316926E-02 -8.217794698E+00  6.192380544E+01  6.246677375E+01  1.168007728E-06  0.00000E+00  9.000E+00
</event>
<event>
      5  10001  2.02673E+08  6.69720E+00 -1.00000E+00  2.18231E-01
      21    -1     0     0   513   512  0.000000000E+00  0.000000000E+00  1.497414667E+02  1.497414667E+02  0.000000000E+00  0.00000E+00  9.000E+00
      21    -1     0     0   514   516  0.000000000E+00  0.000000000E+00 -1.262890326E+02  1.262890326E+02  0.000000000E+00  0.00000E+00  9.000E+00
      21     1     1     2   513   516  5.689319921E+00 -1.994116750E+01 -1.238707384E+02  1.255944997E+02  1.348699152E-06  0.00000E+00  9.000E+00
      21     1     1     2   514   511 -1.129504030E+01  1.627669350E+01  6.790959206E+01  7.074052149E+01  9.536743164E-07  0.00000E+00  9.000E+00
      21     1     1     2   511   512  5.605720377E+00  3.664474001E+00  7.941358041E+01  7.969547806E+01  0.000000000E+00  0.00000E+00  9.000E+00
</event>
<event>
      5  10001  2.02673E+08  1.37201E+01 -1.00000E+00  1.81062E-01
      21    -1     0     0   515   514  0.000000000E+00  0.000000000E+00  3.878579651E+01  3.878579651E+01  0.000000000E+00  0.00000E+00  9.000E+00
      21    -1     0     0   517   512  0.000000000E+00  0.000000000E+00 -2.528853634E+01  2.528853634E+01  0.000000000E+00  0.00000E+00  9.000E+00
      21     1     1     2   515   512  2.312944676E+01 -8.858583772E+00  1.651024072E+01  2.976632094E+01  3.371747881E-07  0.00000E+00  9.000E+00
      21     1     1     2   517   513 -1.721588171E+01  1.160849299E+01 -1.139697031E+01  2.368616948E+01  2.920019320E-07  0.00000E+00  9.000E+00
      21     1     1     2   513   514 -5.913565053E+00 -2.749909220E+00  8.383989756E+00  1.062184243E+01  1.192092896E-07  0.00000E+00  9.000E+00
</event>
<event>
      5  10001  2.02673E+08  2.66202E+01 -1.00000E+00  1.56698E-01
      21    -1     0     0   511   513  0.000000000E+00  0.000000000E+00  2.283034689E+01  2.283034689E+01  0.000000000E+00  0.00000E+00  9.000E+00
      21    -1     0     0   514   511  0.000000000E+00  0.000000000E+00 -4.040260052E+01  4.040260052E+01  0.000000000E+00  0.00000E+00  9.000E+00
      21     1     1     2   516   513 -2.063212690E+01  7.846569932E+00  1.214478554E+01  2.519422823E+01  2.384185791E-07  0.00000E+00  9.000E+00
      21     1     1     2   514   512  2.685833180E+00  1.292000192E+00 -1.406040812E+00  3.295438534E+00  0.000000000E+00  0.00000E+00  9.000E+00
      21     1     1     2   512   516  1.794629372E+01 -9.138570124E+00 -2.831099835E+01  3.474328065E+01  0.000000000E+00  0.00000E+00  9.000E+00
</event>
<event>
      5  10001  2.02673E+08  1.27298E+01 -1.00000E+00  1.84320E-01
      -1    -1     0     0     0   512  0.000000000E+00  0.000000000E+00  3.363427631E+01  3.363427631E+01  0.000000000E+00  0.00000E+00  9.000E+00
       2    -1     0     0   512     0  0.000000000E+00  0.000000000E+00 -4.072728149E+01  4.072728149E+01  0.000000000E+00  0.00000E+00  9.000E+00
      -1     1     1     2     0   511  1.740345291E+01  2.644861402E+01  6.338575495E-01  3.166891271E+01  3.300000131E-01  0.00000E+00  9.000E+00
       2     1     1     2   513     0 -1.266484053E+01 -3.213632745E+01 -7.078926367E+00  3.526133613E+01  3.300000131E-01  0.00000E+00  9.000E+00
      21     1     1     2   511   513 -4.738612379E+00  5.687713427E+00 -6.479363691E-01  7.431308959E+00  1.690805810E-07  0.00000E+00  9.000E+00
</event>
<event>
      5  10001  2.02673E+08  1.22824E+01 -1.00000E+00  1.85920E-01
      21    -1     0     0   514   512  0.000000000E+00  0.000000000E+00  2.718330055E+01  2.718330055E+01  0.000000000E+00  0.00000E+00  9.000E+00
      21    -1     0     0   511   515  0.000000000E+00  0.000000000E+00 -1.895488474E+01  1.895488474E+01  0.000000000E+00  0.00000E+00  9.000E+00
      21     1     1     2   514   515 -1.201541665E+00 -1.911967100E+01 -2.974466466E+00  1.938692787E+01  3.345302391E-07  0.00000E+00  9.000E+00
      21     1     1     2   516   512 -6.386861158E+00  1.314241669E+01  6.203872343E+00  1.587460689E+01  2.795705652E-07  0.00000E+00  9.000E+00
      21     1     1     2   511   516  7.588402823E+00  5.977254305E+00  4.999009930E+00  1.087665053E+01  1.576990671E-07  0.00000E+00  9.000E+00
</event>
<event>
      5  10001  2.02673E+08  7.75152E+00 -1.00000E+00  2.09411E-01
      21    -1     0     0   513   515  0.000000000E+00  0.000000000E+00  2.469836099E+02  2.469836099E+02  0.000000000E+00  0.00000E+00  9.000E+00
      21    -1     0     0   511   517  0.000000000E+00  0.000000000E+00 -2.480473558E+00  2.480473558E+00  0.000000000E+00  0.00000E+00  9.000E+00
      21     1     1     2   513   517  3.024967864E+00 -2.352597355E+01  1.013485078E+02  1.040871841E+02  1.348699152E-06  0.00000E+00  9.000E+00
      -3     1     1     2     0   515 -4.153611630E+00  1.264521229E+01  9.863760583E+01  9.953281452E+01  5.000000000E-01  0.00000E+00  9.000E+00
       3     1     1     2   511     0  1.128643766E+00  1.088076126E+01  4.451702268E+01  4.584408479E+01  5.000000000E-01  0.00000E+00  9.000E+00
</event>
<event>
      5  10001  2.02673E+08  5.61368E+00 -1.00000E+00  2.29975E-01
       2    -1     0     0   511     0  0.000000000E+00  0.000000000E+00  3.565214041E+01  3.565214041E+01  0.000000000E+00  0.00000E+00  9.000E+00
      21    -1     0     0   512   514  0.000000000E+00  0.000000000E+00 -1.463560491E+01  1.463560491E+01  0.000000000E+00  0.00000E+00  9.000E+00
       4     1     1     2   511     0 -1.556663578E+01 -4.924906321E+00 -3.932337787E+00  1.686084613E+01  1.500000000E+00  0.00000E+00  9.000E+00
       2     1     1     2   512     0  1.826622115E+01  4.959973235E+00  1.959276511E+01  2.724410971E+01  3.300000131E-01  0.00000E+00  9.000E+00
      -4     1     1     2     0   514 -2.699585365E+00 -3.506691407E-02  5.356108187E+00  6.182789479E+00  1.500000000E+00  0.00000E+00  9.000E+00
</event>
<event>
      5  10001  2.02673E+08  7.73779E+00 -1.00000E+00  2.09514E-01
      21    -1     0     0   513   512  0.000000000E+00  0.000000000E+00  2.090198288E+01  2.090198288E+01  0.000000000E+00  0.00000E+00  9.000E+00
      21    -1     0     0   515   513  0.000000000E+00  0.000000000E+00 -3.189209303E+01  3.189209303E+01  0.000000000E+00  0.00000E+00  9.000E+00
      21     1     1     2   515   514  1.858022208E+01 -3.390946755E+00 -1.754968587E+01  2.578206056E+01  3.371747881E-07  0.00000E+00  9.000E+00
      21     1     1     2   514   511 -2.225275920E+01  2.751736758E+00  5.010754290E+00  2.297531297E+01  3.908537939E-07  0.00000E+00  9.000E+00
      21     1     1     2   511   512  3.672537125E+00  6.392099972E-01  1.548821432E+00  4.036702390E+00  1.192092896E-07  0.00000E+00  9.000E+00
</event>
<event>
      5  10001  2.02673E+08  5.03779E+00 -1.00000E+00  2.37859E-01
      21    -1     0     0   516   514  0.000000000E+00  0.000000000E+00  1.035834794E+02  1.035834794E+02  0.000000000E+00  0.00000E+00  9.000E+00
      21    -1     0     0   515   513  0.000000000E+00  0.000000000E+00 -2.654142023E+01  2.654142023E+01  0.000000000E+00  0.00000E+00  9.000E+00
      21     1     1     2   516   512  1.447922473E+01  3.498860157E+01  1.269877951E+01  3.993881808E+01  2.384185791E-07  0.00000E+00  9.000E+00
      21     1     1     2   515   514 -1.945863601E+01 -3.575331518E+01  7.099821107E+01  8.183937950E+01  1.348699152E-06  0.00000E+00  9.000E+00
      21     1     1     2   512   513  4.979411271E+00  7.647136114E-01 -6.654931391E+00  8.346702063E+00  1.192092896E-07  0.00000E+00  9.000E+00
</event>
<event>
      5  10001  2.02673E+08  2.12349E+01 -1.00000E+00  1.64210E-01
       2    -1     0     0   512     0  0.000000000E+00  0.000000000E+00  9.645404669E+01  9.645404669E+01  0.000000000E+00  0.00000E+00  9.000E+00
      21    -1     0     0   511   513  0.000000000E+00  0.000000000E+00 -9.139799874E+00  9.139799874E+00  0.000000000E+00  0.00000E+00  9.000E+00
      -5     1     1     2     0   513 -5.592218296E+00  1.125418610E+01  1.725241891E+01  2.187728435E+01  4.800000191E+00  0.00000E+00  9.000E+00
       2     1     1     2   511     0  5.565401904E-01 -1.995345926E+01  6.977403723E+01  7.257393089E+01  3.300000131E-01  0.00000E+00  9.000E+00
       5     1     1     2   512     0  5.035678105E+00  8.699273163E+00  2.877906721E-01  1.114263133E+01  4.800000191E+00  0.00000E+00  9.000E+00
</event>
<event>
      5  10001  2.02673E+08  2.88858E+01 -1.00000E+00  1.54155E-01
      21    -1     0     0   514   511  0.000000000E+00  0.000000000E+00  1.030666568E+02  1.030666568E+02  0.000000000E+00  0.00000E+00  9.000E+00
      21    -1     0     0   515   514  0.000000000E+00  0.000000000E+00 -6.082001025E+00  6.082001025E+00  0.000000000E+00  0.00000E+00  9.000E+00
      21     1     1     2   515   516 -1.736386222E+01  9.316906715E+00  1.949384938E+01  2.771856103E+01  2.384185791E-07  0.00000E+00  9.000E+00
      21     1     1     2   513   511  3.971547068E+00  4.286482639E+00  1.541576937E+01  1.648614766E+01  1.685873940E-07  0.00000E+00  9.000E+00
      21     1     1     2   516   513  1.339231515E+01 -1.360338935E+01  6.207503703E+01  6.494394913E+01  6.743495762E-07  0.00000E+00  9.000E+00
</event>
<event>
      5  10001  2.02673E+08  1.22703E+01 -1.00000E+00  1.85964E-01
      -2    -1     0     0     0   511  0.000000000E+00  0.000000000E+00  3.515131164E+01  3.515131164E+01  0.000000000E+00  0.00000E+00  9.000E+00
       1    -1     0     0   511     0  0.000000000E+00  0.000000000E+00 -4.069233420E+02  4.069233420E+02  0.000000000E+00  0.00000E+00  9.000E+00
      -2     1     1     2     0   512 -1.071811093E+01  5.057296967E+01  1.268217509E+01  5.323015713E+01  3.300000131E-01  0.00000E+00  9.000E+00
       1     1     1     2   514     0  4.392842659E+00 -3.495821100E+01 -3.291662888E+02  3.310467160E+02  3.300000131E-01  0.00000E+00  9.000E+00
      21     1     1     2   512   514  6.325268270E+00 -1.561475867E+01 -5.528791667E+01  5.779778056E+01  9.536743164E-07  0.00000E+00  9.000E+00
</event>
<event>
      5  10001  2.02673E+08  7.20492E+00 -1.00000E+00  2.13728E-01
      21    -1     0     0   513   512  0.000000000E+00  0.000000000E+00  1.243006067E+02  1.243006067E+02  0.000000000E+00  0.00000E+00  9.000E+00
      21    -1     0     0   511   515  0.000000000E+00  0.000000000E+00 -4.686704268E+00  4.686704268E+00  0.000000000E+00  0.00000E+00  9.000E+00
      21     1     1     2   513   515  1.895403838E+01  6.603965082E+00  2.478305266E+01  3.189149769E+01  0.000000000E+00  0.00000E+00  9.000E+00
      21     1     1     2   511   516 -7.733741004E+00 -4.301786962E+00  3.069719249E+01  3.194735901E+01  5.840038640E-07  0.00000E+00  9.000E+00
      21     1     1     2   516   512 -1.122029737E+01 -2.302178120E+00  6.413365727E+01  6.514845426E+01  0.000000000E+00  0.00000E+00  9.000E+00
</event>
<event>
      5  10001  2.02673E+08  9.02319E+00 -1.00000E+00  2.01001E-01
      21    -1     0     0   514   511  0.000000000E+00  0.000000000E+00  5.510032125E+00  5.510032125E+00  0.000000000E+00  0.00000E+00  9.000E+00
      21    -1     0     0   517   512  0.000000000E+00  0.000000000E+00 -4.282370996E+02  4.282370996E+02  0.000000000E+00  0.00000E+00  9.000E+00
      21     1     1     2   514   512  2.952125429E+01  2.450681662E+01 -8.245369699E+01  9.094339263E+01  1.651812370E-06  0.00000E+00  9.000E+00
      21     1     1     2   517   513 -2.272375936E+01 -2.460725442E+01 -2.436450121E+02  2.459365328E+02  2.697398305E-06  0.00000E+00  9.000E+00
      21     1     1     2   513   511 -6.797494930E+00  1.004377984E-01 -9.662835840E+01  9.686720638E+01  0.000000000E+00  0.00000E+00  9.000E+00
</event>
<event>
      5  10001  2.02673E+08  3.93237E+00 -1.00000E+00  2.65118E-01
      21    -1     0     0   515   512  0.000000000E+00  0.000000000E+00  2.832980922E+01  2.832980922E+01  0.000000000E+00  0.00000E+00  9.000E+00
      21    -1     0     0   514   515  0.000000000E+00  0.000000000E+00 -5.889793847E+01  5.889793847E+01  0.000000000E+00  0.00000E+00  9.000E+00
      21     1     1     2   511   516 -3.095432993E+01  1.256752645E+01 -2.779552289E+01  4.345922636E+01  1.118282261E-06  0.00000E+00  9.000E+00
      21     1     1     2   516   512  3.456968002E+01 -1.102066089E+01  3.407401829E+00  3.644349229E+01  5.543552410E-07  0.00000E+00  9.000E+00
      21     1     1     2   514   511 -3.615350083E+00 -1.546865567E+00 -6.180008192E+00  7.325029048E+00  8.429369702E-08  0.00000E+00  9.000E+00
</event>
<event>
      5  10001  2.02673E+08  9.48049E+00 -1.00000E+00  1.98414E-01
      21    -1     0     0   513   516  0.000000000E+00  0.000000000E+00  2.053351733E+01  2.053351733E+01  0.000000000E+00  0.00000E+00  9.000E+00
      21    -1     0     0   514   511  0.000000000E+00  0.000000000E+00 -7.980495384E+01  7.980495384E+01  0.000000000E+00  0.00000E+00  9.000E+00
      21     1     1     2   513   511 -4.848703479E+00 -2.191112431E+01 -7.060361117E+01  7.408425747E+01  0.000000000E+00  0.00000E+00  9.000E+00
      21     1     1     2   514   512 -5.543839691E-01  1.090959006E+01  2.669122815E+00  1.124503061E+01  2.149076030E-07  0.00000E+00  9.000E+00
      21     1     1     2   512   516  5.403087448E+00  1.100153425E+01  8.663051841E+00  1.500918309E+01  2.064765462E-07  0.00000E+00  9.000E+00
</event>
<event>
      5  10001  2.02673E+08  3.59666E+00 -1.00000E+00  2.74725E-01
       2    -1     0     0   511     0  0.000000000E+00  0.000000000E+00  1.290131330E+02  1.290131330E+02  0.000000000E+00  0.00000E+00  9.000E+00
      21    -1     0     0   512   513  0.000000000E+00  0.000000000E+00 -2.315378234E+01  2.315378234E+01  0.000000000E+00  0.00000E+00  9.000E+00
      21     1     1     2   511   515  1.647214823E+01  1.434320671E+01 -1.502348526E+01  2.650970305E+01  7.725644944E-07  0.00000E+00  9.000E+00
       2     1     1     2   512     0 -1.287558684E+01 -1.436472366E+01  1.205062322E+02  1.220409232E+02  3.300000131E-01  0.00000E+00  9.000E+00
      21     1     1     2   515   513 -3.596561393E+00  2.151694900E-02  3.766037086E-01  3.616289146E+00  5.320778808E-08  0.00000E+00  9.000E+00
</event>
<event>
      5  10001  2.02673E+08  1.12634E+01 -1.00000E+00  1.89913E-01
       2    -1     0     0   512     0  0.000000000E+00  0.000000000E+00  1.154633037E+02  1.154633037E+02  0.000000000E+00  0.00000E+00  9.000E+00
      21    -1     0     0   514   511  0.000000000E+00  0.000000000E+00 -1.335038455E+02  1.335038455E+02  0.000000000E+00  0.00000E+00  9.000E+00
      21     1     1     2   512   513  1.313781451E+01 -2.599956879E+01 -8.727548759E+01  9.200864351E+01  2.132480600E-06  0.00000E+00  9.000E+00
       2     1     1     2   514     0 -1.323214948E+01  1.473657427E+01  1.114859344E+02  1.132319693E+02  3.300000131E-01  0.00000E+00  9.000E+00
      21     1     1     2   513   511  9.433496955E-02  1.126299453E+01 -4.225098862E+01  4.372653638E+01  8.259061849E-07  0.00000E+00  9.000E+00
</event>
<event>
      5  10001  2.02673E+08  1.77264E+01 -1.00000E+00  1.70769E-01
      21    -1     0     0   515   512  0.000000000E+00  0.000000000E+00  1.175239706E+02  1.175239706E+02  0.000000000E+00  0.00000E+00  9.000E+00
      21    -1     0     0   516   515  0.000000000E+00  0.000000000E+00 -5.463500953E+01  5.463500953E+01  0.000000000E+00  0.00000E+00  9.000E+00
      21     1     1     2   511   514 -4.113902720E+01 -6.076918169E+00 -3.297272745E+01  5.307117154E+01  0.000000000E+00  0.00000E+00  9.000E+00
      21     1     1     2   516   511  2.719310144E+01  1.701935584E+01  1.344016841E+01  3.478162398E+01  8.259061849E-07  0.00000E+00  9.000E+00
      21     1     1     2   514   512  1.394592575E+01 -1.094243767E+01  8.242152014E+01  8.430618465E+01  0.000000000E+00  0.00000E+00  9.000E+00
</event>
<event>
      5  10001  2.02673E+08  1.02192E+01 -1.00000E+00  1.94617E-01
      21    -1     0     0   513   511  0.000000000E+00  0.000000000E+00  2.089437452E+02  2.089437452E+02  0.000000000E+00  0.00000E+00  9.000E+00
      21    -1     0     0   512   515  0.000000000E+00  0.000000000E+00 -4.161963991E+01  4.161963991E+01  0.000000000E+00  0.00000E+00  9.000E+00
      21     1     1     2   516   511  4.462760799E+00 -2.327184423E+01  1.828606655E+02  1.843895820E+02  0.000000000E+00  0.00000E+00  9.000E+00
      21     1     1     2   512   516  5.747968757E+00  2.285608874E+01  1.892703625E+01  3.022701835E+01  1.215700987E-06  0.00000E+00  9.000E+00
      21     1     1     2   513   515 -1.021072956E+01  4.157554980E-01 -3.446359647E+01  3.594678473E+01  8.259061849E-07  0.00000E+00  9.000E+00
</event>
<event>
      5  10001  2.02673E+08  1.13720E+01 -1.00000E+00  1.89462E-01
       2    -1     0     0   514     0  0.000000000E+00  0.000000000E+00  6.158317104E+02  6.158317104E+02  0.000000000E+00  0.00000E+00  9.000E+00
      21    -1     0     0   517   514  0.000000000E+00  0.000000000E+00 -1.838600573E+00  1.838600573E+00  0.000000000E+00  0.00000E+00  9.000E+00
      21     1     1     2   517   515  2.121831396E+01  6.634185791E+00  1.721763067E+02  1.736056159E+02  2.697398305E-06  0.00000E+00  9.000E+00
      21     1     1     2   515   511 -1.972305746E+01  4.638595016E+00  9.863992328E+01  1.006993050E+02  1.348699152E-06  0.00000E+00  9.000E+00
       2     1     1     2   511     0 -1.495256502E+00 -1.127278081E+01  3.431768798E+02  3.433653901E+02  3.300000131E-01  0.00000E+00  9.000E+00
</event>
<event>
      5  10001  2.02673E+08  1.00742E+01 -1.00000E+00  1.95329E-01
      21    -1     0     0   514   515  0.000000000E+00  0.000000000E+00  2.235436563E+02  2.235436563E+02  0.000000000E+00  0.00000E+00  9.000E+00
      21    -1     0     0   513   512  0.000000000E+00  0.000000000E+00 -1.155603761E+02  1.155603761E+02  0.000000000E+00  0.00000E+00  9.000E+00
      21     1     1     2   513   516 -1.910725412E+01  2.539660147E+01 -9.624521420E+01  1.013568734E+02  1.348699152E-06  0.00000E+00  9.000E+00
      21     1     1     2   516   515  1.758795879E+01 -1.543766713E+01 -8.412086399E+00  2.486807307E+01  4.616955931E-07  0.00000E+00  9.000E+00
      21     1     1     2   514   512  1.519295334E+00 -9.958934342E+00  2.126405808E+02  2.128790859E+02  2.697398305E-06  0.00000E+00  9.000E+00
</event>
<event>
      5  10001  2.02673E+08  2.01645E+01 -1.00000E+00  1.66035E-01
       2    -1     0     0   514     0  0.000000000E+00  0.000000000E+00  3.085027096E+02  3.085027096E+02  0.000000000E+00  0.00000E+00  9.000E+00
      21    -1     0     0   511   512  0.000000000E+00  0.000000000E+00 -2.355290788E+00  2.355290788E+00  0.000000000E+00  0.00000E+00  9.000E+00
      21     1     1     2   514   512 -2.063708753E+01 -5.677124329E+00  1.380077507E+02  1.396576470E+02  2.697398305E-06  0.00000E+00  9.000E+00
      21     1     1     2   511   513  1.139687823E+01  1.058328674E+01  4.490844217E+01  4.752539289E+01  6.743495762E-07  0.00000E+00  9.000E+00
       2     1     1     2   513     0  9.240209305E+00 -4.906162408E+00  1.232312260E+02  1.236749605E+02  3.300000131E-01  0.00000E+00  9.000E+00
</event>
<event>
      5  10001  2.02673E+08  1.39924E+01 -1.00000E+00  1.80228E-01
      21    -1     0     0   515   513  0.000000000E+00  0.000000000E+00  4.597866319E+01  4.597866319E+01  0.000000000E+00  0.00000E+00  9.000E+00
      21    -1     0     0   516   515  0.000000000E+00  0.000000000E+00 -2.990680769E+01  2.990680769E+01  0.000000000E+00  0.00000E+00  9.000E+00
      21     1     1     2   511   513  8.013639485E+00  1.586730673E+01  3.423690589E+01  3.857661942E+01  0.000000000E+00  0.00000E+00  9.000E+00
      21     1     1     2   512   511 -5.892331076E+00 -8.943049651E+00 -2.509541603E+01  2.728511697E+01  4.768371582E-07  0.00000E+00  9.000E+00
      21     1     1     2   516   512 -2.121308408E+00 -6.924257075E+00  6.930365632E+00  1.002373449E+01  1.192092896E-07  0.00000E+00  9.000E+00
</event>
<event>
      5  10001  2.02673E+08  1.79935E+01 -1.00000E+00  1.70205E-01
       5    -1     0     0   511     0  0.000000000E+00  0.000000000E+00  8.959440166E+01  8.959440166E+01  0.000000000E+00  0.00000E+00  9.000E+00
      21    -1     0     0   513   511  0.000000000E+00  0.000000000E+00 -7.228098283E+01  7.228098283E+01  0.000000000E+00  0.00000E+00  9.000E+00
      21     1     1     2   512   514  2.682392383E+01 -2.730720925E+01  3.678282152E+01  5.308655692E+01  4.768371582E-07  0.00000E+00  9.000E+00
       5     1     1     2   514     0 -4.000372528E+01  1.509479430E+01  3.242259988E+01  5.387407387E+01  4.800000191E+00  0.00000E+00  9.000E+00
      21     1     1     2   513   512  1.317980144E+01  1.221241494E+01 -5.189200256E+01  5.491475371E+01  6.743495762E-07  0.00000E+00  9.000E+00
</event>
<event>
      5  10001  2.02673E+08  3.03483E+01 -1.00000E+00  1.52658E-01
      -4    -1     0     0     0   512  0.000000000E+00  0.000000000E+00  2.534596027E+01  2.534596027E+01  0.000000000E+00  0.00000E+00  9.000E+00
      21    -1     0     0   512   511  0.000000000E+00  0.000000000E+00 -1.517137545E+02  1.517137545E+02  0.000000000E+00  0.00000E+00  9.000E+00
      -4     1     1     2     0   513 -8.580267573E+00 -2.082407679E+01  1.693962992E+01  2.822169782E+01  1.500000000E+00  0.00000E+00  9.000E+00
      21     1     1     2   514   511 -7.763536942E-02  2.666527321E+01 -7.218206859E+01  7.694994378E+01  0.000000000E+00  0.00000E+00  9.000E+00
      21     1     1     2   513   514  8.657902942E+00 -5.841196420E+00 -7.112535559E+01  7.188807319E+01  9.536743164E-07  0.00000E+00  9.000E+00
</event>
<event>
      5  10001  2.02673E+08  2.99981E+01 -1.00000E+00  1.53007E-01
       1    -1     0     0   511     0  0.000000000E+00  0.000000000E+00  4.924469206E+02  4.924469206E+02  0.000000000E+00  0.00000E+00  9.000E+00
       3    -1     0     0   513     0  0.000000000E+00  0.000000000E+00 -6.163995431E+00  6.163995431E+00  0.000000000E+00  0.00000E+00  9.000E+00
       1     1     1     2   513     0 -3.210430428E-01  1.997387508E+01  4.451790890E+02  4.456271861E+02  3.300000131E-01  0.00000E+00  9.000E+00
      21     1     1     2   511   512  6.974765088E+00 -1.906943933E+01  4.153905893E+01  4.623617935E+01  4.768371582E-07  0.00000E+00  9.000E+00
       3     1     1     2   512     0 -6.653722045E+00 -9.044357566E-01 -4.352227399E-01  6.747550661E+00  5.000000000E-01  0.00000E+00  9.000E+00
</event>
<event>
      5  10001  2.02673E+08  1.88865E+01 -1.00000E+00  1.68406E-01
      21    -1     0     0   514   512  0.000000000E+00  0.000000000E+00  5.994547172E+00  5.994547172E+00  0.000000000E+00  0.00000E+00  9.000E+00
      21    -1     0     0   515   514  0.000000000E+00  0.000000000E+00 -1.336657371E+02  1.336657371E+02  0.000000000E+00  0.00000E+00  9.000E+00
      21     1     1     2   516   512  8.130855348E+00 -1.886576318E+01 -2.138551575E+01  2.965414158E+01  5.331201500E-07  0.00000E+00  9.000E+00
      21     1     1     2   515   511 -4.242711769E+00  4.128844172E+00 -7.471335788E+01  7.494754034E+01  0.000000000E+00  0.00000E+00  9.000E+00
      21     1     1     2   511   516 -3.888143578E+00  1.473691901E+01 -3.157231633E+01  3.505860238E+01  5.840038640E-07  0.00000E+00  9.000E+00
</event>
<event>
      5  10001  2.02673E+08  4.09982E+01 -1.00000E+00  1.44148E-01
      21    -1     0     0   513   515  0.000000000E+00  0.000000000E+00  1.059506757E+02  1.059506757E+02  0.000000000E+00  0.00000E+00  9.000E+00
      21    -1     0     0   512   516  0.000000000E+00  0.000000000E+00 -1.043234002E+02  1.043234002E+02  0.000000000E+00  0.00000E+00  9.000E+00
      21     1     1     2   513   516 -5.814368769E+00 -2.144705071E+01 -9.961902144E+01  1.020672930E+02  2.336015456E-06  0.00000E+00  9.000E+00
      21     1     1     2   512   514  9.100997537E+00 -5.349004815E+00  3.801230159E+01  3.945091990E+01  8.259061849E-07  0.00000E+00  9.000E+00
      21     1     1     2   514   515 -3.286628768E+00  2.679605552E+01  6.323399540E+01  6.875586298E+01  6.743495762E-07  0.00000E+00  9.000E+00
</event>
<event>
      5  10001  2.02673E+08  1.90051E+01 -1.00000E+00  1.68176E-01
      21    -1     0     0   511   512  0.000000000E+00  0.000000000E+00  5.813553894E+01  5.813553894E+01  0.000000000E+00  0.00000E+00  9.000E+00
       2    -1     0     0   513     0  0.000000000E+00  0.000000000E+00 -1.379537608E+02  1.379537608E+02  0.000000000E+00  0.00000E+00  9.000E+00
      21     1     1     2   514   512  2.948820370E+01  1.596406837E+01  4.187309589E+01  5.364477417E+01  4.768371582E-07  0.00000E+00  9.000E+00
       2     1     1     2   511     0 -3.590180162E+01  1.925928665E+00 -2.473096569E+01  4.363918108E+01  3.300000131E-01  0.00000E+00  9.000E+00
      21     1     1     2   513   514  6.413597923E+00 -1.788999703E+01 -9.696035210E+01  9.880534455E+01  1.348699152E-06  0.00000E+00  9.000E+00
</event>
<event>
      5  10001  2.02673E+08  2.57236E+01 -1.00000E+00  1.57791E-01
      21    -1     0     0   515   514  0.000000000E+00  0.000000000E+00  5.984206067E+01  5.984206067E+01  0.000000000E+00  0.00000E+00  9.000E+00
      21    -1     0     0   513   515  0.000000000E+00  0.000000000E+00 -2.207707477E+01  2.207707477E+01  0.000000000E+00  0.00000E+00  9.000E+00
      21     1     1     2   516   514 -6.167934137E+00 -1.760371050E+01 -1.113583575E+01  2.172420016E+01  4.129530925E-07  0.00000E+00  9.000E+00
      21     1     1     2   513   511  4.156701476E+00  2.297908945E+01  2.004927844E+01  3.077808124E+01  0.000000000E+00  0.00000E+00  9.000E+00
      21     1     1     2   511   516  2.011232661E+00 -5.375378953E+00  2.885154321E+01  2.941685403E+01  3.371747881E-07  0.00000E+00  9.000E+00
</event>
<event>
      5  10001  2.02673E+08  3.96555E+01 -1.00000E+00  1.45042E-01
      21    -1     0     0   512   513  0.000000000E+00  0.000000000E+00  9.613938052E+01  9.613938052E+01  0.000000000E+00  0.00000E+00  9.000E+00
      21    -1     0     0   514   516  0.000000000E+00  0.000000000E+00 -1.001550272E+01  1.001550272E+01  0.000000000E+00  0.00000E+00  9.000E+00
      21     1     1     2   512   516 -1.897790096E+01 -3.744095260E+00  6.187674930E+00  2.030926624E+01  8.429369702E-08  0.00000E+00  9.000E+00
      21     1     1     2   515   513  5.248180592E+00 -8.463253047E+00  1.266728648E+01  1.611304435E+01  2.920019320E-07  0.00000E+00  9.000E+00
      21     1     1     2   514   515  1.372972037E+01  1.220734831E+01  6.726891639E+01  6.973257264E+01  0.000000000E+00  0.00000E+00  9.000E+00
</event>
<event>
      5  10001  2.02673E+08  6.94943E+00 -1.00000E+00  2.15928E-01
      21    -1     0     0   511   513  0.000000000E+00  0.000000000E+00  5.020478712E+02  5.020478712E+02  0.000000000E+00  0.00000E+00  9.000E+00
       2    -1     0     0   514     0  0.000000000E+00  0.000000000E+00 -3.569559761E+00  3.569559761E+00  0.000000000E+00  0.00000E+00  9.000E+00
      21     1     1     2   512   513  9.158716892E+00  2.223507802E+01  4.423986543E+02  4.430517465E+02  7.629394531E-06  0.00000E+00  9.000E+00
       2     1     1     2   511     0 -1.150182655E+01 -2.259421997E+01  5.182853758E+01  5.769832751E+01  3.300000131E-01  0.00000E+00  9.000E+00
      21     1     1     2   514   512  2.343109656E+00  3.591419519E-01  4.251119614E+00  4.867356960E+00  5.960464478E-08  0.00000E+00  9.000E+00
</event>
<event>
      5  10001  2.02673E+08  1.79381E+01 -1.00000E+00  1.70321E-01
      21    -1     0     0   511   513  0.000000000E+00  0.000000000E+00  2.675438432E+02  2.675438432E+02  0.000000000E+00  0.00000E+00  9.000E+00
      21    -1     0     0   514   515  0.000000000E+00  0.000000000E+00 -1.685987975E+01  1.685987975E+01  0.000000000E+00  0.00000E+00  9.000E+00
      21     1     1     2   514   512  2.445944183E+01 -6.814210129E-02 -1.192962185E+00  2.448861158E+01  4.313622363E-07  0.00000E+00  9.000E+00
      21     1     1     2   512   513 -1.970496102E+01  1.736470012E+01  4.383396549E+01  5.110024295E+01  1.066240300E-06  0.00000E+00  9.000E+00
      21     1     1     2   511   515 -4.754480816E+00 -1.729655802E+01  2.080429602E+02  2.088148684E+02  0.000000000E+00  0.00000E+00  9.000E+00
</event>
<event>
      5  10001  2.02673E+08  7.48551E+00 -1.00000E+00  2.11449E-01
       1    -1     0     0   516     0  0.000000000E+00  0.000000000E+00  7.766006310E+02  7.766006310E+02  0.000000000E+00  0.00000E+00  9.000E+00
      21    -1     0     0   517   516  0.000000000E+00  0.000000000E+00 -7.641578475E+00  7.641578475E+00  0.000000000E+00  0.00000E+00  9.000E+00
      21     1     1     2   517   514  1.110594507E+01 -1.402265156E+01  1.031247849E+01  2.064761452E+01  2.064765462E-07  0.00000E+00  9.000E+00
      21     1     1     2   514   512 -1.086963673E+01  2.150439651E+01  5.669270259E+01  6.160073538E+01  1.168007728E-06  0.00000E+00  9.000E+00
       1     1     1     2   512     0 -2.363083369E-01 -7.481744954E+00  7.019538714E+02  7.019938595E+02  3.300000131E-01  0.00000E+00  9.000E+00
</event>
<event>
      5  10001  2.02673E+08  1.26558E+01 -1.00000E+00  1.84579E-01
      21    -1     0     0   511   514  0.000000000E+00  0.000000000E+00  3.132835406E+02  3.132835406E+02  0.000000000E+00  0.00000E+00  9.000E+00
      21    -1     0     0   515   513  0.000000000E+00  0.000000000E+00 -1.296913687E+00  1.296913687E+00  0.000000000E+00  0.00000E+00  9.000E+00
      21     1     1     2   511   513 -4.592649808E+00 -1.779946746E+01  1.517411733E+02  1.528505714E+02  1.907348633E-06  0.00000E+00  9.000E+00
      21     1     1     2   515   516  1.665922013E+00  8.550922398E+00  1.206250670E+02  1.209392424E+02  1.348699152E-06  0.00000E+00  9.000E+00
      21     1     1     2   516   514  2.926727795E+00  9.248545065E+00  3.962038659E+01  4.079064053E+01  4.768371582E-07  0.00000E+00  9.000E+00
</event>
<event>
      5  10001  2.02673E+08  1.80923E+01 -1.00000E+00  1.70000E-01
      21    -1     0     0   516   514  0.000000000E+00  0.000000000E+00  1.158033007E+00  1.158033007E+00  0.000000000E+00  0.00000E+00  9.000E+00
      21    -1     0     0   512   516  0.000000000E+00  0.000000000E+00 -5.715799772E+02  5.715799772E+02  0.000000000E+00  0.00000E+00  9.000E+00
      -1     1     1     2     0   511  3.374613200E+00  1.417831262E+01 -1.164614990E+02  1.173703634E+02  3.300000131E-01  0.00000E+00  9.000E+00
       1     1     1     2   512     0 -1.716958846E+01 -1.368831971E+01 -2.831763424E+02  2.840266091E+02  3.300000131E-01  0.00000E+00  9.000E+00
      21     1     1     2   511   514  1.379497526E+01 -4.899929049E-01 -1.707841027E+02  1.713410376E+02  1.907348633E-06  0.00000E+00  9.000E+00
</event>
<event>
      5  10001  2.02673E+08  3.92615E+01 -1.00000E+00  1.45312E-01
      21    -1     0     0   513   514  0.000000000E+00  0.000000000E+00  3.537950358E+01  3.537950358E+01  0.000000000E+00  0.00000E+00  9.000E+00
      21    -1     0     0   514   512  0.000000000E+00  0.000000000E+00 -3.039378480E+02  3.039378480E+02  0.000000000E+00  0.00000E+00  9.000E+00
      -4     1     1     2     0   515 -2.526174533E+01  3.675069112E+01 -1.615520241E+01  4.745534364E+01  1.500000000E+00  0.00000E+00  9.000E+00
       4     1     1     2   513     0  3.901859155E+01 -7.351651942E+01 -8.145950423E+01  1.164690085E+02  1.500000000E+00  0.00000E+00  9.000E+00
      21     1     1     2   515   512 -1.375684622E+01  3.676582830E+01 -1.709436378E+02  1.753929994E+02  1.907348633E-06  0.00000E+00  9.000E+00
</event>
<event>
      5  10001  2.02673E+08  1.22164E+01 -1.00000E+00  1.86163E-01
      21    -1     0     0   511   512  0.000000000E+00  0.000000000E+00  1.126603573E+03  1.126603573E+03  0.000000000E+00  0.00000E+00  9.000E+00
      21    -1     0     0   514   516  0.000000000E+00  0.000000000E+00 -1.100754039E+00  1.100754039E+00  0.000000000E+00  0.00000E+00  9.000E+00
      21     1     1     2   511   516  1.076366351E+01  2.077466124E+01  1.453501394E+02  1.472212825E+02  1.907348633E-06  0.00000E+00  9.000E+00
      21     1     1     2   514   513 -4.962414702E+00 -1.177185593E+01  3.384863475E+02  3.387273381E+02  3.814697266E-06  0.00000E+00  9.000E+00
      21     1     1     2   513   512 -5.801248807E+00 -9.002805311E+00  6.416663319E+02  6.417557062E+02  1.525878906E-05  0.00000E+00  9.000E+00
</event>
<event>
      5  10001  2.02673E+08  2.02810E+01 -1.00000E+00  1.65829E-01
       2    -1     0     0   514     0  0.000000000E+00  0.000000000E+00  9.929233364E+01  9.929233364E+01  0.000000000E+00  0.00000E+00  9.000E+00
      21    -1     0     0   513   511  0.000000000E+00  0.000000000E+00 -8.313342362E+01  8.313342362E+01  0.000000000E+00  0.00000E+00  9.000E+00
      21     1     1     2   514   515 -3.628505414E+01 -1.868757267E+01  2.726371021E+01  4.908299523E+01  7.539457465E-07  0.00000E+00  9.000E+00
       2     1     1     2   513     0  1.607898631E+01  2.042848024E+01  5.680342165E+01  6.247074689E+01  3.300000131E-01  0.00000E+00  9.000E+00
      21     1     1     2   515   511  2.020606783E+01 -1.740907564E+00 -6.790822184E+01  7.087201514E+01  9.536743164E-07  0.00000E+00  9.000E+00
</event>
<event>
      5  10001  2.02673E+08  1.17877E+01 -1.00000E+00  1.87793E-01
      21    -1     0     0   512   511  0.000000000E+00  0.000000000E+00  5.268168571E+00  5.268168571E+00  0.000000000E+00  0.00000E+00  9.000E+00
      21    -1     0     0   515   516  0.000000000E+00  0.000000000E+00 -9.975434918E+01  9.975434918E+01  0.000000000E+00  0.00000E+00  9.000E+00
      21     1     1     2   512   516  1.528376297E+01  1.335151984E+01 -3.323362685E+01  3.894008791E+01  8.259061849E-07  0.00000E+00  9.000E+00
      21     1     1     2   513   511 -1.424841588E+01 -3.250323576E+00 -3.774916780E+01  4.047939757E+01  6.743495762E-07  0.00000E+00  9.000E+00
      21     1     1     2   515   513 -1.035347091E+00 -1.010119627E+01 -2.350338596E+01  2.560303227E+01  0.000000000E+00  0.00000E+00  9.000E+00
</event>
<event>
      5  10001  2.02673E+08  9.33390E+00 -1.00000E+00  1.99222E-01
      21    -1     0     0   514   513  0.000000000E+00  0.000000000E+00  4.647759513E+01  4.647759513E+01  0.000000000E+00  0.00000E+00  9.000E+00
      21    -1     0     0   515   514  0.000000000E+00  0.000000000E+00 -6.402272558E+01  6.402272558E+01  0.000000000E+00  0.00000E+00  9.000E+00
      21     1     1     2   515   517  2.260042185E+01  7.796020575E+00 -5.455565356E+01  5.956405241E+01  6.743495762E-07  0.00000E+00  9.000E+00
      21     1     1     2   511   513 -2.377347683E+01 -1.178549092E+00  3.725662866E+01  4.421112482E+01  4.768371582E-07  0.00000E+00  9.000E+00
      21     1     1     2   517   511  1.173054987E+00 -6.617471484E+00 -2.461055539E-01  6.725143477E+00  9.968197465E-08  0.00000E+00  9.000E+00
</event>
<event>
      5  10001  2.02673E+08  1.78694E+01 -1.00000E+00  1.70465E-01
       2    -1     0     0   514     0  0.000000000E+00  0.000000000E+00  1.182345259E+03  1.182345259E+03  0.000000000E+00  0.00000E+00  9.000E+00
      21    -1     0     0   513   514  0.000000000E+00  0.000000000E+00 -8.280730222E+00  8.280730222E+00  0.000000000E+00  0.00000E+00  9.000E+00
      21     1     1     2   511   512  2.213088029E+01  5.228319420E-01  1.087885880E+02  1.110180440E+02  5.046370146E-06  0.00000E+00  9.000E+00
       2     1     1     2   512     0 -2.800869900E+01  1.635217066E+01  1.060654953E+03  1.061150752E+03  3.300000131E-01  0.00000E+00  9.000E+00
      21     1     1     2   513   511  5.877818706E+00 -1.687500260E+01  4.620988505E+00  1.845719373E+01  4.298152060E-07  0.00000E+00  9.000E+00
</event>
<event>
      5  10001  2.02673E+08  7.49495E+00 -1.00000E+00  2.11375E-01
       2    -1     0     0   512     0  0.000000000E+00  0.000000000E+00  7.614576256E+02  7.614576256E+02  0.000000000E+00  0.00000E+00  9.000E+00
      21    -1     0     0   515   514  0.000000000E+00  0.000000000E+00 -1.719387200E+01  1.719387200E+01  0.000000000E+00  0.00000E+00  9.000E+00
      21     1     1     2   512   514 -1.177439380E+01  1.614278501E+01 -1.113876087E+01  2.287570438E+01  6.848052319E-07  0.00000E+00  9.000E+00
       2     1     1     2   516     0  3.962543606E+00 -9.486366224E+00  5.674936688E+02  5.675868796E+02  3.300000131E-01  0.00000E+00  9.000E+00
      21     1     1     2   515   516  7.811850195E+00 -6.656418786E+00  1.879088457E+02  1.881889136E+02  0.000000000E+00  0.00000E+00  9.000E+00
</event>
<event>
      5  10001  2.02673E+08  4.69169E+00 -1.00000E+00  2.48054E-01
      21    -1     0     0   511   514  0.000000000E+00  0.000000000E+00  2.732038662E+01  2.732038662E+01  0.000000000E+00  0.00000E+00  9.000E+00
      21    -1     0     0   515   513  0.000000000E+00  0.000000000E+00 -1.835314750E+01  1.835314750E+01  0.000000000E+00  0.00000E+00  9.000E+00
      21     1     1     2   511   513 -1.538695789E+01 -1.587335306E+01  6.698279257E+00  2.309954016E+01  5.057621821E-07  0.00000E+00  9.000E+00
      21     1     1     2   512   514  6.982449180E+00  5.743998155E+00 -7.422548262E-01  9.071882582E+00  1.324444177E-07  0.00000E+00  9.000E+00
      21     1     1     2   515   512  8.404508714E+00  1.012935491E+01  3.011214698E+00  1.350211137E+01  2.950279396E-07  0.00000E+00  9.000E+00
</event>
<event>
      5  10001  2.02673E+08  3.21956E+00 -1.00000E+00  2.87729E-01
       2    -1     0     0   513     0  0.000000000E+00  0.000000000E+00  2.132229767E+00  2.132229767E+00  0.000000000E+00  0.00000E+00  9.000E+00
       2    -1     0     0   511     0  0.000000000E+00  0.000000000E+00 -3.648075797E+02  3.648075797E+02  0.000000000E+00  0.00000E+00  9.000E+00
       2     1     1     2   515     0 -2.327001213E+01  2.235947301E+00 -2.231341875E+02  2.243556717E+02  3.300000131E-01  0.00000E+00  9.000E+00
       2     1     1     2   511     0  2.571655801E+01 -4.328421463E+00 -1.244645004E+02  1.271675955E+02  3.300000131E-01  0.00000E+00  9.000E+00
      21     1     1     2   513   515 -2.446545883E+00  2.092474161E+00 -1.507666206E+01  1.541654221E+01  4.129530925E-07  0.00000E+00  9.000E+00
</event>
<event>
      5  10001  2.02673E+08  1.69474E+01 -1.00000E+00  1.72486E-01
      21    -1     0     0   512   511  0.000000000E+00  0.000000000E+00  5.555048647E+01  5.555048647E+01  0.000000000E+00  0.00000E+00  9.000E+00
      21    -1     0     0   514   512  0.000000000E+00  0.000000000E+00 -2.132225140E+02  2.132225140E+02  0.000000000E+00  0.00000E+00  9.000E+00
      21     1     1     2   514   515 -1.145287772E+01 -2.532442951E+01 -2.072090292E+02  2.090647673E+02  0.000000000E+00  0.00000E+00  9.000E+00
      21     1     1     2   515   516 -2.587783960E+00  1.161749379E+01  2.878352762E+01  3.114729924E+01  5.840038640E-07  0.00000E+00  9.000E+00
      21     1     1     2   516   511  1.404066168E+01  1.370693572E+01  2.075347400E+01  2.856093399E+01  8.920806376E-07  0.00000E+00  9.000E+00
</event>
<event>
      5  10001  2.02673E+08  1.83500E+01 -1.00000E+00  1.69471E-01
      21    -1     0     0   513   515  0.000000000E+00  0.000000000E+00  1.210412021E+00  1.210412021E+00  0.000000000E+00  0.00000E+00  9.000E+00
      21    -1     0     0   511   513  0.000000000E+00  0.000000000E+00 -4.165105376E+02  4.165105376E+02  0.000000000E+00  0.00000E+00  9.000E+00
      21     1     1     2   511   514  9.201354495E+00  1.295195050E+01 -1.582847375E+02  1.590800933E+02  0.000000000E+00  0.00000E+00  9.000E+00
      21     1     1     2   512   515 -1.468096075E+00 -1.787711956E+01 -2.082493971E+02  2.090204730E+02  4.672030912E-06  0.00000E+00  9.000E+00
      21     1     1     2   514   512 -7.733258420E+00  4.925169064E+00 -4.876599096E+01  4.962038341E+01  6.743495762E-07  0.00000E+00  9.000E+00
</event>
<event>
      5  10001  2.02673E+08  2.78274E+01 -1.00000E+00  1.55306E-01
       2    -1     0     0   515     0  0.000000000E+00  0.000000000E+00  1.707778790E+02  1.707778790E+02  0.000000000E+00  0.00000E+00  9.000E+00
      -3    -1     0     0     0   513  0.000000000E+00  0.000000000E+00 -9.039768666E+01  9.039768666E+01  0.000000000E+00  0.00000E+00  9.000E+00
      -3     1     1     2     0   511 -4.171566250E+01 -1.434494484E+00 -7.669534650E+01  8.731941621E+01  5.000000000E-01  0.00000E+00  9.000E+00
       2     1     1     2   511     0  1.514236482E+01  9.693608515E+00  1.401221904E+02  1.412713503E+02  3.300000131E-01  0.00000E+00  9.000E+00
      21     1     1     2   515   513  2.657329767E+01 -8.259114031E+00  1.695334836E+01  3.258479913E+01  4.129530925E-07  0.00000E+00  9.000E+00
</event>
<event>
      5  10001  2.02673E+08  1.51346E+01 -1.00000E+00  1.76972E-01
       2    -1     0     0   511     0  0.000000000E+00  0.000000000E+00  1.440084443E+02  1.440084443E+02  0.000000000E+00  0.00000E+00  9.000E+00
      21    -1     0     0   512   513  0.000000000E+00  0.000000000E+00 -3.325257225E+00  3.325257225E+00  0.000000000E+00  0.00000E+00  9.000E+00
      21     1     1     2   511   513  1.841443155E+01 -5.923458376E+00  5.982792547E+01  6.287733546E+01  6.743495762E-07  0.00000E+00  9.000E+00
       2     1     1     2   514     0 -8.594125811E+00  3.073012775E+00  6.466846643E+01  6.531019719E+01  3.300000131E-01  0.00000E+00  9.000E+00
      21     1     1     2   512   514 -9.820305740E+00  2.850445601E+00  1.618679522E+01  1.914616892E+01  2.384185791E-07  0.00000E+00  9.000E+00
</event>
<event>
      5  10001  2.02673E+08  2.04459E+01 -1.00000E+00  1.65541E-01
      21    -1     0     0   515   516  0.000000000E+00  0.000000000E+00  1.085452537E+02  1.085452537E+02  0.000000000E+00  0.00000E+00  9.000E+00
      21    -1     0     0   512   515  0.000000000E+00  0.000000000E+00 -6.943194224E+00  6.943194224E+00  0.000000000E+00  0.00000E+00  9.000E+00
      21     1     1     2   514   516 -9.117687539E+00  1.775624802E+01  6.914177503E+01  7.196528069E+01  9.536743164E-07  0.00000E+00  9.000E+00
      21     1     1     2   512   511  1.299000506E+01 -3.305987898E+00  1.087675977E+01  1.726191445E+01  4.129530925E-07  0.00000E+00  9.000E+00
      21     1     1     2   511   514 -3.872317523E+00 -1.445026012E+01  2.158352467E+01  2.626125278E+01  5.331201500E-07  0.00000E+00  9.000E+00
</event>
<event>
      5  10001  2.02673E+08  2.89094E+00 -1.00000E+00  3.01690E-01
      21    -1     0     0   513   512  0.000000000E+00  0.000000000E+00  2.070594253E+01  2.070594253E+01  0.000000000E+00  0.00000E+00  9.000E+00
      21    -1     0     0   516   514  0.000000000E+00  0.000000000E+00 -7.944508030E+01  7.944508030E+01  0.000000000E+00  0.00000E+00  9.000E+00
      21     1     1     2   513   514 -2.056089413E+01  6.860651238E+00 -7.086599388E+01  7.410673378E+01  0.000000000E+00  0.00000E+00  9.000E+00
      21     1     1     2   516   515  1.911307727E+01 -3.767321938E+00  1.133425597E+01  2.253814091E+01  5.331201500E-07  0.00000E+00  9.000E+00
      21     1     1     2   515   512  1.447816865E+00 -3.093329300E+00  7.926001420E-01  3.506148146E+00  2.107342426E-08  0.00000E+00  9.000E+00
</event>
<event>
      5  10001  2.02673E+08  1.18809E+01 -1.00000E+00  1.87431E-01
       3    -1     0     0   513     0  0.000000000E+00  0.000000000E+00  1.426924067E+02  1.426924067E+02  0.000000000E+00  0.00000E+00  9.000E+00
      21    -1     0     0   515   513  0.000000000E+00  0.000000000E+00 -6.841021704E+01  6.841021704E+01  0.000000000E+00  0.00000E+00  9.000E+00
      21     1     1     2   515   511  2.368456730E+01  7.856927029E+00 -6.423157599E+01  6.890852912E+01  9.536743164E-07  0.00000E+00  9.000E+00
       3     1     1     2   514     0 -1.395562745E+01  1.763435570E+00  1.058313575E+02  1.067632683E+02  5.000000000E-01  0.00000E+00  9.000E+00
      21     1     1     2   511   514 -9.728939848E+00 -9.620362599E+00  3.268240821E+01  3.543082632E+01  8.259061849E-07  0.00000E+00  9.000E+00
</event>
<event>
      5  10001  2.02673E+08  9.09236E+00 -1.00000E+00  2.00597E-01
      21    -1     0     0   512   514  0.000000000E+00  0.000000000E+00  1.055999463E+02  1.055999463E+02  0.000000000E+00  0.00000E+00  9.000E+00
      21    -1     0     0   511   513  0.000000000E+00  0.000000000E+00 -1.627930728E+01  1.627930728E+01  0.000000000E+00  0.00000E+00  9.000E+00
      21     1     1     2   512   516 -1.926053475E+01  5.076028092E+00  7.327742175E+01  7.593625483E+01  1.348699152E-06  0.00000E+00  9.000E+00
      21     1     1     2   511   514  2.833080548E+01 -5.709365034E+00  2.087072877E+01  3.564854426E+01  7.539457465E-07  0.00000E+00  9.000E+00
      21     1     1     2   516   513 -9.070270731E+00  6.333369419E-01 -4.827511474E+00  1.029445452E+01  2.230201594E-07  0.00000E+00  9.000E+00
</event>
<event>
      5  10001  2.02673E+08  4.57077E+00 -1.00000E+00  2.50430E-01
      21    -1     0     0   515   512  0.000000000E+00  0.000000000E+00  8.043429904E+00  8.043429904E+00  0.000000000E+00  0.00000E+00  9.000E+00
      21    -1     0     0   516   517  0.000000000E+00  0.000000000E+00 -1.864074429E+02  1.864074429E+02  0.000000000E+00  0.00000E+00  9.000E+00
      21     1     1     2   515   517  5.546347112E+00  2.509162145E+01 -1.072355342E+02  1.102715341E+02  1.907348633E-06  0.00000E+00  9.000E+00
      21     1     1     2   516   511 -2.460353210E+00 -2.171988825E+01 -7.504279307E+01  7.816154857E+01  9.536743164E-07  0.00000E+00  9.000E+00
      21     1     1     2   511   512 -3.085993902E+00 -3.371733195E+00  3.914314221E+00  6.017790202E+00  1.460009660E-07  0.00000E+00  9.000E+00
</event>
<event>
      5  10001  2.02673E+08  4.99526E+00 -1.00000E+00  2.42536E-01
       4    -1     0     0   511     0  0.000000000E+00  0.000000000E+00  6.142443024E+00  6.142443024E+00  0.000000000E+00  0.00000E+00  9.000E+00
       1    -1     0     0   512     0  0.000000000E+00  0.000000000E+00 -9.530254941E+01  9.530254941E+01  0.000000000E+00  0.00000E+00  9.000E+00
       1     1     1     2   511     0 -1.782961970E+01  1.315799121E+01 -2.992541555E+01  3.723798420E+01  3.300000131E-01  0.00000E+00  9.000E+00
       4     1     1     2   513     0  1.845496152E+01 -9.078434075E+00 -4.821960766E+01  5.244410484E+01  1.500000000E+00  0.00000E+00  9.000E+00
      21     1     1     2   512   513 -6.253418185E-01 -4.079557136E+00 -1.101508318E+01  1.176290339E+01  2.064765462E-07  0.00000E+00  9.000E+00
</event>
<event>
      5  10001  2.02673E+08  1.61035E+01 -1.00000E+00  1.74482E-01
      21    -1     0     0   514   513  0.000000000E+00  0.000000000E+00  1.841913097E+02  1.841913097E+02  0.000000000E+00  0.00000E+00  9.000E+00
      21    -1     0     0   512   515  0.000000000E+00  0.000000000E+00 -1.047759663E+01  1.047759663E+01  0.000000000E+00  0.00000E+00  9.000E+00
      21     1     1     2   514   515 -1.870889234E+01  1.395507428E+01  5.377153899E+00  2.395162906E+01  2.731427965E-07  0.00000E+00  9.000E+00
      21     1     1     2   511   513  7.012647711E+00 -1.456986738E+01  8.093417997E+01  8.253362800E+01  0.000000000E+00  0.00000E+00  9.000E+00
      21     1     1     2   512   511  1.169624463E+01  6.147931026E-01  8.740237917E+01  8.818364924E+01  9.536743164E-07  0.00000E+00  9.000E+00
</event>
<event>
      5  10001  2.02673E+08  1.56638E+01 -1.00000E+00  1.75583E-01
      21    -1     0     0   513   511  0.000000000E+00  0.000000000E+00  4.102004050E+02  4.102004050E+02  0.000000000E+00  0.00000E+00  9.000E+00
      21    -1     0     0   512   517  0.000000000E+00  0.000000000E+00 -4.842752912E+00  4.842752912E+00  0.000000000E+00  0.00000E+00  9.000E+00
      21     1     1     2   516   517  1.000611583E+01 -2.428484804E+01  4.710012115E+01  5.392863442E+01  0.000000000E+00  0.00000E+00  9.000E+00
      21     1     1     2   512   511 -2.272598972E+01  1.514374790E+01  2.783314903E+02  2.796680572E+02  3.814697266E-06  0.00000E+00  9.000E+00
      21     1     1     2   513   516  1.271987389E+01  9.141100141E+00  7.992604067E+01  8.144646635E+01  0.000000000E+00  0.00000E+00  9.000E+00
</event>
<event>
      5  10001  2.02673E+08  1.45370E+01 -1.00000E+00  1.78628E-01
       2    -1     0     0   515     0  0.000000000E+00  0.000000000E+00  4.438550373E+02  4.438550373E+02  0.000000000E+00  0.00000E+00  9.000E+00
      -3    -1     0     0     0   515  0.000000000E+00  0.000000000E+00 -1.081443830E+01  1.081443830E+01  0.000000000E+00  0.00000E+00  9.000E+00
      21     1     1     2   514   513  1.695392379E+01  1.233075925E+01  6.089649589E+01  6.440393131E+01  9.536743164E-07  0.00000E+00  9.000E+00
       2     1     1     2   513     0 -5.694901614E+00 -2.152586015E+01  3.748159465E+02  3.754768930E+02  3.300000131E-01  0.00000E+00  9.000E+00
      -3     1     1     2     0   514 -1.125902217E+01  9.195100899E+00 -2.671843325E+00  1.478865131E+01  5.000000000E-01  0.00000E+00  9.000E+00
</event>
<event>
      5  10001  2.02673E+08  2.19173E+01 -1.00000E+00  1.63114E-01
      21    -1     0     0   511   512  0.000000000E+00  0.000000000E+00  2.511794827E+01  2.511794827E+01  0.000000000E+00  0.00000E+00  9.000E+00
      21    -1     0     0   512   514  0.000000000E+00  0.000000000E+00 -5.341195619E+01  5.341195619E+01  0.000000000E+00  0.00000E+00  9.000E+00
      -4     1     1     2     0   513  1.397253759E+01  2.171138468E+01 -2.662454246E+01  3.711781638E+01  1.500000000E+00  0.00000E+00  9.000E+00
       4     1     1     2   511     0 -6.552801727E+00 -1.560970017E+01  1.467435658E+01  2.245414640E+01  1.500000000E+00  0.00000E+00  9.000E+00
      21     1     1     2   513   514 -7.419735865E+00 -6.101684512E+00 -1.634382203E+01  1.895794168E+01  2.384185791E-07  0.00000E+00  9.000E+00
</event>
<event>
      5  10001  2.02673E+08  3.85674E+01 -1.00000E+00  1.45798E-01
      21    -1     0     0   515   513  0.000000000E+00  0.000000000E+00  3.020410377E+01  3.020410377E+01  0.000000000E+00  0.00000E+00  9.000E+00
      21    -1     0     0   512   516  0.000000000E+00  0.000000000E+00 -1.903507043E+01  1.903507043E+01  0.000000000E+00  0.00000E+00  9.000E+00
      21     1     1     2   515   516 -6.976401704E+00  6.352449378E+00  2.485796256E-01  9.438516074E+00  1.304915539E-07  0.00000E+00  9.000E+00
      21     1     1     2   511   513  6.400974196E+00 -1.039232835E+00 -1.340707761E+01  1.489302540E+01  2.920019320E-07  0.00000E+00  9.000E+00
      21     1     1     2   512   511  5.754275086E-01 -5.313216543E+00  2.432753134E+01  2.490763272E+01  0.000000000E+00  0.00000E+00  9.000E+00
</event>
<event>
      5  10001  2.02673E+08  3.70060E+00 -1.00000E+00  2.71579E-01
      21    -1     0     0   512   511  0.000000000E+00  0.000000000E+00  1.614952340E+00  1.614952340E+00  0.000000000E+00  0.00000E+00  9.000E+00
       2    -1     0     0   513     0  0.000000000E+00  0.000000000E+00 -7.679426003E+02  7.679426003E+02  0.000000000E+00  0.00000E+00  9.000E+00
      21     1     1     2   513   514 -5.731070919E+00  7.206918392E+00 -2.685926325E+01  2.839374700E+01  3.371747881E-07  0.00000E+00  9.000E+00
       2     1     1     2   512     0  1.183832886E+01 -1.714525777E+01 -6.909033888E+02  6.912175544E+02  3.300000131E-01  0.00000E+00  9.000E+00
      21     1     1     2   514   511 -6.107257938E+00  9.938339379E+00 -4.856499587E+01  4.994625124E+01  0.000000000E+00  0.00000E+00  9.000E+00
</event>
<event>
      5  10001  2.02673E+08  1.20078E+01 -1.00000E+00  1.86945E-01
      21    -1     0     0   515   514  0.000000000E+00  0.000000000E+00  7.546453793E+01  7.546453793E+01  0.000000000E+00  0.00000E+00  9.000E+00
      21    -1     0     0   513   512  0.000000000E+00  0.000000000E+00 -1.687422308E+03  1.687422308E+03  0.000000000E+00  0.00000E+00  9.000E+00
      21     1     1     2   515   511  2.311378476E+01  2.644641980E+00  7.307219463E+01  7.668628825E+01  1.907348633E-06  0.00000E+00  9.000E+00
      21     1     1     2   513   514 -2.295910876E+01  9.362155863E+00 -2.740138711E+02  2.751333716E+02  3.814697266E-06  0.00000E+00  9.000E+00
      21     1     1     2   511   512 -1.546759991E-01 -1.200679784E+01 -1.411016094E+03  1.411067186E+03  3.051757812E-05  0.00000E+00  9.000E+00
</event>
<event>
      5  10001  2.02673E+08  2.66211E+01 -1.00000E+00  1.56697E-01
      21    -1     0     0   516   513  0.000000000E+00  0.000000000E+00  2.530507043E+01  2.530507043E+01  0.000000000E+00  0.00000E+00  9.000E+00
       1    -1     0     0   511     0  0.000000000E+00  0.000000000E+00 -2.430155987E+02  2.430155987E+02  0.000000000E+00  0.00000E+00  9.000E+00
      21     1     1     2   511   513 -2.353569011E+01  3.051178058E+01  2.238118072E+00  3.859930874E+01  1.306892154E-06  0.00000E+00  9.000E+00
       1     1     1     2   514     0  7.737378519E+00 -2.876084579E+01 -2.072424785E+02  2.093719348E+02  3.300000131E-01  0.00000E+00  9.000E+00
      21     1     1     2   516   514  1.579831159E+01 -1.750934783E+00 -1.270616785E+01  2.034942562E+01  2.384185791E-07  0.00000E+00  9.000E+00
</event>
<event>
      5  10001  2.02673E+08  3.56973E+01 -1.00000E+00  1.47941E-01
      -5    -1     0     0     0   512  0.000000000E+00  0.000000000E+00  1.764550310E+01  1.764550310E+01  0.000000000E+00  0.00000E+00  9.000E+00
      21    -1     0     0   512   515  0.000000000E+00  0.000000000E+00 -1.656909462E+02  1.656909462E+02  0.000000000E+00  0.00000E+00  9.000E+00
      21     1     1     2   513   511  4.475726320E+01  1.893340398E+01 -6.280889722E+01  7.941438136E+01  9.536743164E-07  0.00000E+00  9.000E+00
      21     1     1     2   511   515 -3.382484116E+01 -1.111837895E+01 -8.184531622E+01  8.925465824E+01  0.000000000E+00  0.00000E+00  9.000E+00
      -5     1     1     2     0   513 -1.093242204E+01 -7.815025027E+00 -3.391229684E+00  1.466740974E+01  4.800000191E+00  0.00000E+00  9.000E+00
</event>
<event>
      5  10001  2.02673E+08  5.39782E+00 -1.00000E+00  2.32767E-01
      21    -1     0     0   514   511  0.000000000E+00  0.000000000E+00  9.496856103E+01  9.496856103E+01  0.000000000E+00  0.00000E+00  9.000E+00
      21    -1     0     0   512   513  0.000000000E+00  0.000000000E+00 -1.780287763E+01  1.780287763E+01  0.000000000E+00  0.00000E+00  9.000E+00
      21     1     1     2   514   513 -1.681444866E+01  1.849099552E+01 -5.704889493E+00  2.563568535E+01  0.000000000E+00  0.00000E+00  9.000E+00
      21     1     1     2   515   511  1.072890511E+01 -1.782537722E+01  6.431956650E+01  6.760074047E+01  0.000000000E+00  0.00000E+00  9.000E+00
      21     1     1     2   512   515  6.085543552E+00 -6.656182964E-01  1.855100639E+01  1.953501283E+01  0.000000000E+00  0.00000E+00  9.000E+00
</event>
<event>
      5  10001  2.02673E+08  1.62502E+01 -1.00000E+00  1.74124E-01
      21    -1     0     0   516   513  0.000000000E+00  0.000000000E+00  8.574364442E+01  8.574364442E+01  0.000000000E+00  0.00000E+00  9.000E+00
      21    -1     0     0   512   517  0.000000000E+00  0.000000000E+00 -3.540918154E+01  3.540918154E+01  0.000000000E+00  0.00000E+00  9.000E+00
      21     1     1     2   516   517 -3.271190819E+01 -7.952256023E+00  7.174757341E+01  7.925289650E+01  1.651812370E-06  0.00000E+00  9.000E+00
      21     1     1     2   511   513  1.578937893E+01 -1.838240312E+00 -5.949015890E+00  1.697275477E+01  4.380028980E-07  0.00000E+00  9.000E+00
      21     1     1     2   512   511  1.692252927E+01  9.790496334E+00 -1.546409464E+01  2.492717469E+01  5.057621821E-07  0.00000E+00  9.000E+00
</event>
<event>
      5  10001  2.02673E+08  8.85826E+00 -1.00000E+00  2.01985E-01
      21    -1     0     0   515   511  0.000000000E+00  0.000000000E+00  9.111905020E+01  9.111905020E+01  0.000000000E+00  0.00000E+00  9.000E+00
      21    -1     0     0   511   513  0.000000000E+00  0.000000000E+00 -1.552375532E+02  1.552375532E+02  0.000000000E+00  0.00000E+00  9.000E+00
      -4     1     1     2     0   513 -1.568462749E+01 -2.048627777E+01 -1.394989091E+02  1.418727978E+02  1.500000000E+00  0.00000E+00  9.000E+00
       4     1     1     2   514     0  9.559999508E+00  2.688361014E+01 -1.276730897E-02  2.857222861E+01  1.500000000E+00  0.00000E+00  9.000E+00
      21     1     1     2   515   514  6.124627985E+00 -6.397332366E+00  7.539317339E+01  7.591157700E+01  1.348699152E-06  0.00000E+00  9.000E+00
</event>
<event>
      5  10001  2.02673E+08  2.98586E+01 -1.00000E+00  1.53147E-01
      21    -1     0     0   516   511  0.000000000E+00  0.000000000E+00  3.749379080E+01  3.749379080E+01  0.000000000E+00  0.00000E+00  9.000E+00
      -3    -1     0     0     0   512  0.000000000E+00  0.000000000E+00 -1.314602720E+01  1.314602720E+01  0.000000000E+00  0.00000E+00  9.000E+00
      21     1     1     2   513   511 -1.779242986E+00  1.002209233E+01  8.662581680E+00  1.336594036E+01  2.384185791E-07  0.00000E+00  9.000E+00
      21     1     1     2   516   512 -1.483937444E+01 -4.478815316E+00  3.394517498E+00  1.586787855E+01  3.068336886E-07  0.00000E+00  9.000E+00
      -3     1     1     2     0   513  1.661861743E+01 -5.543277019E+00  1.229066442E+01  2.140599909E+01  5.000000000E-01  0.00000E+00  9.000E+00
</event>
<event>
      5  10001  2.02673E+08  2.28033E+01 -1.00000E+00  1.61763E-01
      21    -1     0     0   514   511  0.000000000E+00  0.000000000E+00  3.795421725E+01  3.795421725E+01  0.000000000E+00  0.00000E+00  9.000E+00
      21    -1     0     0   515   514  0.000000000E+00  0.000000000E+00 -5.672390678E+01  5.672390678E+01  0.000000000E+00  0.00000E+00  9.000E+00
      21     1     1     2   515   513  8.474367976E+00 -1.666643857E+01 -4.596794121E+01  4.962496051E+01  6.743495762E-07  0.00000E+00  9.000E+00
      21     1     1     2   512   511 -1.508772442E+01  1.252278119E+00  2.337564680E+01  2.785010758E+01  3.371747881E-07  0.00000E+00  9.000E+00
      21     1     1     2   513   512  6.613356442E+00  1.541416045E+01  3.822604874E+00  1.720305594E+01  3.625608999E-07  0.00000E+00  9.000E+00
</event>
<event>
      5  10001  2.02673E+08  1.07229E+01 -1.00000E+00  1.92261E-01
       1    -1     0     0   513     0  0.000000000E+00  0.000000000E+00  7.206106263E+00  7.206106263E+00  0.000000000E+00  0.00000E+00  9.000E+00
      21    -1     0     0   512   513  0.000000000E+00  0.000000000E+00 -4.252219691E+02  4.252219691E+02  0.000000000E+00  0.00000E+00  9.000E+00
      21     1     1     2   512   511  2.648075545E+00 -1.342233359E+01 -1.640224060E+02  1.645919834E+02  3.303624740E-06  0.00000E+00  9.000E+00
       1     1     1     2   516     0 -2.429839147E+00  2.281523029E+01 -1.244338227E+01  2.610336212E+01  3.300000131E-01  0.00000E+00  9.000E+00
      21     1     1     2   511   516 -2.182363980E-01 -9.392896698E+00 -2.415500746E+02  2.417327298E+02  2.697398305E-06  0.00000E+00  9.000E+00
</event>
<event>
      5  10001  2.02673E+08  5.71610E+00 -1.00000E+00  2.28711E-01
      21    -1     0     0   515   513  0.000000000E+00  0.000000000E+00  4.659688651E+02  4.659688651E+02  0.000000000E+00  0.00000E+00  9.000E+00
      21    -1     0     0   514   515  0.000000000E+00  0.000000000E+00 -3.275743622E+00  3.275743622E+00  0.000000000E+00  0.00000E+00  9.000E+00
      -2     1     1     2     0   512  1.821619343E+01  2.882589207E+01  1.410036829E+02  1.450686363E+02  3.300000131E-01  0.00000E+00  9.000E+00
       2     1     1     2   514     0 -1.390881035E+01 -2.506857615E+01  1.716677684E+02  1.740454541E+02  3.300000131E-01  0.00000E+00  9.000E+00
      21     1     1     2   512   513 -4.307383082E+00 -3.757315922E+00  1.500216702E+02  1.501305183E+02  1.907348633E-06  0.00000E+00  9.000E+00
</event>
<event>
      5  10001  2.02673E+08  1.93550E+01 -1.00000E+00  1.67510E-01
      21    -1     0     0   511   512  0.000000000E+00  0.000000000E+00  2.190140282E+00  2.190140282E+00  0.000000000E+00  0.00000E+00  9.000E+00
      21    -1     0     0   513   511  0.000000000E+00  0.000000000E+00 -2.102740426E+02  2.102740426E+02  0.000000000E+00  0.00000E+00  9.000E+00
      21     1     1     2   513   516  1.272006713E+01  6.710665064E+00 -5.111706020E+01  5.310166643E+01  1.168007728E-06  0.00000E+00  9.000E+00
      21     1     1     2   516   514 -1.141695026E+01 -1.032310244E+01 -4.974346528E+01  5.207039019E+01  6.743495762E-07  0.00000E+00  9.000E+00
      21     1     1     2   514   512 -1.303116875E+00  3.612437374E+00 -1.072233768E+02  1.072921262E+02  1.348699152E-06  0.00000E+00  9.000E+00
</event>
<event>
      5  10001  2.02673E+08  6.97822E+00 -1.00000E+00  2.15674E-01
       2    -1     0     0   514     0  0.000000000E+00  0.000000000E+00  7.910102737E+02  7.910102737E+02  0.000000000E+00  0.00000E+00  9.000E+00
       2    -1     0     0   512     0  0.000000000E+00  0.000000000E+00 -1.485456475E+01  1.485456475E+01  0.000000000E+00  0.00000E+00  9.000E+00
       2     1     1     2   514     0  2.071489547E+01  2.120314623E+00 -7.276225721E+00  2.206025814E+01  3.300000131E-01  0.00000E+00  9.000E+00
       2     1     1     2   511     0 -1.060623256E+01 -2.385275236E+00  5.966470432E+02  5.967461644E+02  3.300000131E-01  0.00000E+00  9.000E+00
      21     1     1     2   512   511 -1.010866292E+01  2.649606125E-01  1.867848915E+02  1.870584159E+02  2.697398305E-06  0.00000E+00  9.000E+00
</event>
<event>
      5  10001  2.02673E+08  8.65242E+00 -1.00000E+00  2.03253E-01
      21    -1     0     0   513   511  0.000000000E+00  0.000000000E+00  6.084335685E+02  6.084335685E+02  0.000000000E+00  0.00000E+00  9.000E+00
      21    -1     0     0   512   514  0.000000000E+00  0.000000000E+00 -2.004020846E+02  2.004020846E+02  0.000000000E+00  0.00000E+00  9.000E+00
      21     1     1     2   513   515 -2.590681306E+01 -5.427702804E+00  2.465337667E+02  2.479506423E+02  3.814697266E-06  0.00000E+00  9.000E+00
      21     1     1     2   512   511  2.541134941E+01 -3.210523264E+00  3.606432246E+02  3.615516279E+02  3.814697266E-06  0.00000E+00  9.000E+00
      21     1     1     2   515   514  4.954636421E-01  8.638226068E+00 -1.991455074E+02  1.993333829E+02  0.000000000E+00  0.00000E+00  9.000E+00
</event>
<event>
      5  10001  2.02673E+08  1.77854E+01 -1.00000E+00  1.70643E-01
      21    -1     0     0   516   511  0.000000000E+00  0.000000000E+00  5.465246644E+01  5.465246644E+01  0.000000000E+00  0.00000E+00  9.000E+00
       3    -1     0     0   512     0  0.000000000E+00  0.000000000E+00 -3.083715414E+01  3.083715414E+01  0.000000000E+00  0.00000E+00  9.000E+00
      21     1     1     2   513   511  7.778841606E+00  1.853904974E+01  2.240535385E+01  3.010326599E+01  4.768371582E-07  0.00000E+00  9.000E+00
       3     1     1     2   516     0 -1.682104475E+01 -1.582195543E+01 -2.090657911E+01  3.115472468E+01  5.000000000E-01  0.00000E+00  9.000E+00
      21     1     1     2   512   513  9.042203143E+00 -2.717094318E+00  2.231653756E+01  2.423162990E+01  2.384185791E-07  0.00000E+00  9.000E+00
</event>
<event>
      5  10001  2.02673E+08  4.49569E+00 -1.00000E+00  2.51963E-01
       2    -1     0     0   511     0  0.000000000E+00  0.000000000E+00  2.829854586E+02  2.829854586E+02  0.000000000E+00  0.00000E+00  9.000E+00
      21    -1     0     0   515   513  0.000000000E+00  0.000000000E+00 -7.045509161E+00  7.045509161E+00  0.000000000E+00  0.00000E+00  9.000E+00
      21     1     1     2   515   514  2.311863587E+01  1.016673069E+01  1.992116954E+01  3.216654681E+01  5.331201500E-07  0.00000E+00  9.000E+00
       2     1     1     2   514     0 -2.139023328E+01 -6.016677457E+00  1.395033476E+02  1.412622928E+02  3.300000131E-01  0.00000E+00  9.000E+00
      21     1     1     2   511   513 -1.728402595E+00 -4.150053230E+00  1.165154323E+02  1.166021281E+02  1.348699152E-06  0.00000E+00  9.000E+00
</event>
<event>
      5  10001  2.02673E+08  7.29594E+00 -1.00000E+00  2.12973E-01
      21    -1     0     0   512   513  0.000000000E+00  0.000000000E+00  2.171992571E+00  2.171992571E+00  0.000000000E+00  0.00000E+00  9.000E+00
      21    -1     0     0   515   516  0.000000000E+00  0.000000000E+00 -4.295330027E+02  4.295330027E+02  0.000000000E+00  0.00000E+00  9.000E+00
      21     1     1     2   512   516 -2.481363039E+00  2.965335532E+01 -2.043344834E+02  2.064898539E+02  2.697398305E-06  0.00000E+00  9.000E+00
      21     1     1     2   515   514 -2.964687653E+00 -1.989607185E+01 -1.384866253E+02  1.399399458E+02  1.907348633E-06  0.00000E+00  9.000E+00
      21     1     1     2   514   513  5.446050693E+00 -9.757283465E+00 -8.453990145E+01  8.527519561E+01  0.000000000E+00  0.00000E+00  9.000E+00
</event>
<event>
      5  10001  2.02673E+08  5.04182E+00 -1.00000E+00  2.37798E-01
      -1    -1     0     0     0   511  0.000000000E+00  0.000000000E+00  9.859478964E+01  9.859478964E+01  0.000000000E+00  0.00000E+00  9.000E+00
      21    -1     0     0   512   513  0.000000000E+00  0.000000000E+00 -3.478060155E+01  3.478060155E+01  0.000000000E+00  0.00000E+00  9.000E+00
      -1     1     1     2     0   513 -4.255206779E+00 -2.285113316E+01  9.092757238E+01  9.385208250E+01  3.300000131E-01  0.00000E+00  9.000E+00
      21     1     1     2   512   515  2.125380132E+00  1.854008569E+01 -2.889341460E+01  3.439595072E+01  4.768371582E-07  0.00000E+00  9.000E+00
      21     1     1     2   515   511  2.129826647E+00  4.311047463E+00  1.780030316E+00  5.127357965E+00  1.490116119E-07  0.00000E+00  9.000E+00
</event>
<event>
      5  10001  2.02673E+08  1.33055E+01 -1.00000E+00  1.82382E-01
      21    -1     0     0   514   512  0.000000000E+00  0.000000000E+00  1.013185296E+02  1.013185296E+02  0.000000000E+00  0.00000E+00  9.000E+00
      21    -1     0     0   516   511  0.000000000E+00  0.000000000E+00 -5.972835586E+00  5.972835586E+00  0.000000000E+00  0.00000E+00  9.000E+00
      21     1     1     2   514   511  5.543120440E+00 -1.783007132E+01  6.938647069E+01  7.185485330E+01  1.348699152E-06  0.00000E+00  9.000E+00
      21     1     1     2   516   513 -9.245207337E+00  6.983287580E+00  7.814645916E+00  1.397529445E+01  2.064765462E-07  0.00000E+00  9.000E+00
      21     1     1     2   513   512  3.702086897E+00  1.084678374E+01  1.814457744E+01  2.146121748E+01  0.000000000E+00  0.00000E+00  9.000E+00
</event>
<event>
      5  10001  2.02673E+08  3.74075E+00 -1.00000E+00  2.70407E-01
      21    -1     0     0   514   511  0.000000000E+00  0.000000000E+00  1.737547970E+01  1.737547970E+01  0.000000000E+00  0.00000E+00  9.000E+00
      21    -1     0     0   517   512  0.000000000E+00  0.000000000E+00 -6.149202414E+01  6.149202414E+01  0.000000000E+00  0.00000E+00  9.000E+00
      21     1     1     2   515   512  1.024354399E+00 -2.515514562E+01 -4.431292958E+00  2.556300080E+01  6.610474888E-07  0.00000E+00  9.000E+00
      21     1     1     2   517   511 -4.490961918E+00  2.656080052E+01 -4.123606306E+01  4.925502776E+01  6.743495762E-07  0.00000E+00  9.000E+00
      21     1     1     2   514   515  3.466607519E+00 -1.405654908E+00  1.550811581E+00  4.049475271E+00  6.322027277E-08  0.00000E+00  9.000E+00
</event>
<event>
      5  10001  2.02673E+08  1.14174E+01 -1.00000E+00  1.89275E-01
      -1    -1     0     0     0   513  0.000000000E+00  0.000000000E+00  8.164754504E+01  8.164754504E+01  0.000000000E+00  0.00000E+00  9.000E+00
      21    -1     0     0   513   514  0.000000000E+00  0.000000000E+00 -1.444070556E+01  1.444070556E+01  0.000000000E+00  0.00000E+00  9.000E+00
      -1     1     1     2     0   511  2.245450635E+01  1.806870985E+01  5.028143196E+01  5.795700502E+01  3.300000131E-01  0.00000E+00  9.000E+00
      21     1     1     2   512   514 -1.417175051E+01 -2.084926389E+01  1.441818883E+01  2.904159925E+01  2.384185791E-07  0.00000E+00  9.000E+00
      21     1     1     2   511   512 -8.282755835E+00  2.780554041E+00  2.507218682E+00  9.089646336E+00  2.682209015E-07  0.00000E+00  9.000E+00
</event>
<event>
      5  10001  2.02673E+08  5.17865E+00 -1.00000E+00  2.35796E-01
      21    -1     0     0   515   514  0.000000000E+00  0.000000000E+00  5.090132687E+01  5.090132687E+01  0.000000000E+00  0.00000E+00  9.000E+00
      21    -1     0     0   513   515  0.000000000E+00  0.000000000E+00 -1.842054732E+01  1.842054732E+01  0.000000000E+00  0.00000E+00  9.000E+00
      21     1     1     2   512   514  2.056433708E+01 -1.787352170E+01  3.074502053E+01  4.108054314E+01  8.920806376E-07  0.00000E+00  9.000E+00
      21     1     1     2   516   512 -1.381400445E+01  9.935610033E+00 -2.084249876E+00  1.714313749E+01  4.768371582E-07  0.00000E+00  9.000E+00
      21     1     1     2   513   516 -6.750332627E+00  7.937911665E+00  3.820008905E+00  1.109819356E+01  2.190014490E-07  0.00000E+00  9.000E+00
</event>
<event>
      5  10001  2.02673E+08  2.42800E+01 -1.00000E+00  1.59669E-01
      -1    -1     0     0     0   511  0.000000000E+00  0.000000000E+00  1.023605569E+02  1.023605569E+02  0.000000000E+00  0.00000E+00  9.000E+00
      21    -1     0     0   512   515  0.000000000E+00  0.000000000E+00 -4.595172980E+00  4.595172980E+00  0.000000000E+00  0.00000E+00  9.000E+00
      -1     1     1     2     0   515  4.195948028E+00  1.790475605E+01  3.808141716E+01  4.229053679E+01  3.300000131E-01  0.00000E+00  9.000E+00
      21     1     1     2   514   511 -7.645869379E+00 -1.398816320E+00  2.333066516E+01  2.459137944E+01  0.000000000E+00  0.00000E+00  9.000E+00
      21     1     1     2   512   514  3.449921351E+00 -1.650593973E+01  3.635330158E+01  4.007381363E+01  0.000000000E+00  0.00000E+00  9.000E+00
</event>
<event>
      5  10001  2.02673E+08  1.52210E+01 -1.00000E+00  1.76740E-01
      21    -1     0     0   512   511  0.000000000E+00  0.000000000E+00  6.250975960E+00  6.250975960E+00  0.000000000E+00  0.00000E+00  9.000E+00
      -3    -1     0     0     0   513  0.000000000E+00  0.000000000E+00 -2.343819966E+02  2.343819966E+02  0.000000000E+00  0.00000E+00  9.000E+00
      -3     1     1     2     0   515 -1.959964877E+01  1.340948205E+01 -1.575439479E+02  1.593245303E+02  5.000000000E-01  0.00000E+00  9.000E+00
      21     1     1     2   512   513  1.156162360E+01 -1.921156976E+01 -2.093431519E+01  3.067574132E+01  2.384185791E-07  0.00000E+00  9.000E+00
      21     1     1     2   515   511  8.038025166E+00  5.802087718E+00 -4.965275761E+01  5.063270098E+01  0.000000000E+00  0.00000E+00  9.000E+00
</event>
<event>
      5  10001  2.02673E+08  1.94617E+01 -1.00000E+00  1.67310E-01
       1    -1     0     0   513     0  0.000000000E+00  0.000000000E+00  1.319431555E+02  1.319431555E+02  0.000000000E+00  0.00000E+00  9.000E+00
      21    -1     0     0   514   512  0.000000000E+00  0.000000000E+00 -5.055311006E+00  5.055311006E+00  0.000000000E+00  0.00000E+00  9.000E+00
      21     1     1     2   513   512  1.687290760E+01  2.027529334E+00  4.559720609E+01  4.866118668E+01  0.000000000E+00  0.00000E+00  9.000E+00
       1     1     1     2   516     0 -2.291235075E+01 -6.166985653E+00  7.506456814E+01  7.872614445E+01  3.300000131E-01  0.00000E+00  9.000E+00
      21     1     1     2   514   516  6.039443149E+00  4.139456320E+00  6.226070234E+00  9.611135351E+00  1.460009660E-07  0.00000E+00  9.000E+00
</event>
<event>
      5  10001  2.02673E+08  3.67391E+00 -1.00000E+00  2.72371E-01
      21    -1     0     0   511   512  0.000000000E+00  0.000000000E+00  3.025318077E+00  3.025318077E+00  0.000000000E+00  0.00000E+00  9.000E+00
      21    -1     0     0   514   515  0.000000000E+00  0.000000000E+00 -1.614103359E+02  1.614103359E+02  0.000000000E+00  0.00000E+00  9.000E+00
      21     1     1     2   511   515 -1.968672270E+01 -7.258113894E+00 -1.003771751E+02  1.025466945E+02  0.000000000E+00  0.00000E+00  9.000E+00
      21     1     1     2   513   512  1.356037644E+01  5.020214204E+00 -4.606516927E+01  4.828132330E+01  0.000000000E+00  0.00000E+00  9.000E+00
      21     1     1     2   514   513  6.126346259E+00  2.237899691E+00 -1.194267342E+01  1.360763616E+01  2.920019320E-07  0.00000E+00  9.000E+00
</event>
<event>
      5  10001  2.02673E+08  1.11105E+01 -1.00000E+00  1.90560E-01
      21    -1     0     0   516   513  0.000000000E+00  0.000000000E+00  8.040325201E+01  8.040325201E+01  0.000000000E+00  0.00000E+00  9.000E+00
      21    -1     0     0   514   517  0.000000000E+00  0.000000000E+00 -1.122827690E+01  1.122827690E+01  0.000000000E+00  0.00000E+00  9.000E+00
      21     1     1     2   516   517  1.419349498E+01  1.377357220E+01  1.938170310E+00  1.987267207E+01  1.908279728E-07  0.00000E+00  9.000E+00
      21     1     1     2   511   513 -1.621216920E+01 -7.561236897E+00  4.121564478E+01  4.493034729E+01  4.768371582E-07  0.00000E+00  9.000E+00
      21     1     1     2   514   511  2.018674215E+00 -6.212335303E+00  2.602116002E+01  2.682850954E+01  3.371747881E-07  0.00000E+00  9.000E+00
</event>
<event>
      5  10001  2.02673E+08  2.76289E+01 -1.00000E+00  1.55529E-01
      21    -1     0     0   512   511  0.000000000E+00  0.000000000E+00  1.306186067E+02  1.306186067E+02  0.000000000E+00  0.00000E+00  9.000E+00
      21    -1     0     0   514   513  0.000000000E+00  0.000000000E+00 -7.899483320E+01  7.899483320E+01  0.000000000E+00  0.00000E+00  9.000E+00
      21     1     1     2   512   515 -2.238138607E+01  4.043188783E+00 -1.530463052E+01  2.741360124E+01  2.920019320E-07  0.00000E+00  9.000E+00
      21     1     1     2   514   511  1.360346395E+01 -3.024062843E+01  1.188476604E+02  1.233868559E+02  1.348699152E-06  0.00000E+00  9.000E+00
      21     1     1     2   515   513  8.777922115E+00  2.619743965E+01 -5.191925634E+01  5.881298275E+01  6.743495762E-07  0.00000E+00  9.000E+00
</event>
<event>
      5  10001  2.02673E+08  6.07347E+00 -1.00000E+00  2.24576E-01
      21    -1     0     0   511   513  0.000000000E+00  0.000000000E+00  9.898815084E+01  9.898815084E+01  0.000000000E+00  0.00000E+00  9.000E+00
      21    -1     0     0   515   517  0.000000000E+00  0.000000000E+00 -1.150244976E+01  1.150244976E+01  0.000000000E+00  0.00000E+00  9.000E+00
      21     1     1     2   516   517 -1.275569741E+01  2.082887194E+01  7.373511790E+01  7.767507538E+01  1.651812370E-06  0.00000E+00  9.000E+00
      21     1     1     2   515   513  9.713817771E+00 -1.557206341E+01  6.377803075E-01  1.836448143E+01  4.720399994E-07  0.00000E+00  9.000E+00
      21     1     1     2   511   516  3.041879640E+00 -5.256808526E+00  1.311280286E+01  1.445104379E+01  1.685873940E-07  0.00000E+00  9.000E+00
</event>
<event>
      5  10001  2.02673E+08  7.55949E+00 -1.00000E+00  2.10871E-01
      21    -1     0     0   514   515  0.000000000E+00  0.000000000E+00  9.051984502E+01  9.051984502E+01  0.000000000E+00  0.00000E+00  9.000E+00
      -4    -1     0     0     0   512  0.000000000E+00  0.000000000E+00 -3.033490213E+01  3.033490213E+01  0.000000000E+00  0.00000E+00  9.000E+00
      -4     1     1     2     0   513 -1.934375024E+01  1.056666722E+01 -1.596235804E+01  2.725586182E+01  1.500000000E+00  0.00000E+00  9.000E+00
      21     1     1     2   514   512  1.360394928E+01 -1.548300604E+01  3.923286417E+00  2.098054071E+01  2.980232239E-07  0.00000E+00  9.000E+00
      21     1     1     2   513   515  5.739800962E+00  4.916338821E+00  7.222401452E+01  7.261834462E+01  9.536743164E-07  0.00000E+00  9.000E+00
</event>
<event>
      5  10001  2.02673E+08  7.31639E+00 -1.00000E+00  2.12806E-01
      -4    -1     0     0     0   511  0.000000000E+00  0.000000000E+00  5.628865705E+00  5.628865705E+00  0.000000000E+00  0.00000E+00  9.000E+00
       2    -1     0     0   511     0  0.000000000E+00  0.000000000E+00 -1.252969916E+03  1.252969916E+03  0.000000000E+00  0.00000E+00  9.000E+00
      21     1     1     2   514   512  1.685437019E+01 -5.142899534E+00 -1.444867740E+01  2.278779254E+01  6.743495762E-07  0.00000E+00  9.000E+00
       2     1     1     2   512     0 -2.319872372E+01 -3.699954860E-01 -1.220733256E+03  1.220953770E+03  3.300000131E-01  0.00000E+00  9.000E+00
      -4     1     1     2     0   514  6.344353525E+00  5.512895020E+00 -1.215911697E+01  1.485721907E+01  1.500000000E+00  0.00000E+00  9.000E+00
</event>
<event>
      5  10001  2.02673E+08  9.70157E+00 -1.00000E+00  1.97231E-01
      21    -1     0     0   513   512  0.000000000E+00  0.000000000E+00  8.367905085E+00  8.367905085E+00  0.000000000E+00  0.00000E+00  9.000E+00
      21    -1     0     0   511   515  0.000000000E+00  0.000000000E+00 -1.151868340E+02  1.151868340E+02  0.000000000E+00  0.00000E+00  9.000E+00
      21     1     1     2   511   514 -2.175320825E+01  2.970987722E+00 -5.456000658E+01  5.881176035E+01  6.743495762E-07  0.00000E+00  9.000E+00
      21     1     1     2   514   512  2.430707428E+01  6.388407722E+00 -2.356068031E+01  3.444925645E+01  6.743495762E-07  0.00000E+00  9.000E+00
      21     1     1     2   513   515 -2.553866036E+00 -9.359395444E+00 -2.869824206E+01  3.029372233E+01  5.840038640E-07  0.00000E+00  9.000E+00
</event>
<event>
      5  10001  2.02673E+08  1.03386E+01 -1.00000E+00  1.94043E-01
      21    -1     0     0   516   514  0.000000000E+00  0.000000000E+00  2.686429440E+01  2.686429440E+01  0.000000000E+00  0.00000E+00  9.000E+00
      21    -1     0     0   517   512  0.000000000E+00  0.000000000E+00 -5.151212974E+02  5.151212974E+02  0.000000000E+00  0.00000E+00  9.000E+00
      21     1     1     2   517   511  3.272728114E+00  1.608523739E+01 -1.814506792E+01  2.446812418E+01  4.768371582E-07  0.00000E+00  9.000E+00
      21     1     1     2   511   514 -2.215829698E+00 -2.636968468E+01  1.624471740E+01  3.105094225E+01  3.371747881E-07  0.00000E+00  9.000E+00
      21     1     1     2   516   512 -1.056898417E+00  1.028444730E+01 -4.863566524E+02  4.864665253E+02  7.629394531E-06  0.00000E+00  9.000E+00
</event>
<event>
      5  10001  2.02673E+08  1.99458E+01 -1.00000E+00  1.66425E-01
      21    -1     0     0   513   514  0.000000000E+00  0.000000000E+00  1.283337281E+02  1.283337281E+02  0.000000000E+00  0.00000E+00  9.000E+00
       2    -1     0     0   511     0  0.000000000E+00  0.000000000E+00 -1.517365782E+02  1.517365782E+02  0.000000000E+00  0.00000E+00  9.000E+00
      21     1     1     2   511   515  5.568625729E-02 -2.834002920E+01  6.458384691E+01  7.052824709E+01  1.348699152E-06  0.00000E+00  9.000E+00
       2     1     1     2   513     0 -4.057412721E+00  3.314879627E+01 -1.467217005E+02  1.504748205E+02  3.300000131E-01  0.00000E+00  9.000E+00
      21     1     1     2   515   514  4.001726464E+00 -4.808767070E+00  5.873500353E+01  5.906723876E+01  1.507891493E-06  0.00000E+00  9.000E+00
</event>
<event>
      5  10001  2.02673E+08  1.96369E+01 -1.00000E+00  1.66986E-01
      21    -1     0     0   511   514  0.000000000E+00  0.000000000E+00  8.491085171E+00  8.491085171E+00  0.000000000E+00  0.00000E+00  9.000E+00
       1    -1     0     0   513     0  0.000000000E+00  0.000000000E+00 -5.083160146E+02  5.083160146E+02  0.000000000E+00  0.00000E+00  9.000E+00
      21     1     1     2   513   514  1.391862278E+00  1.648912783E+01 -2.872569431E+02  2.877331749E+02  3.814697266E-06  0.00000E+00  9.000E+00
       1     1     1     2   512     0  6.612327810E+00 -3.442040874E+01 -2.050866466E+02  2.080603973E+02  3.300000131E-01  0.00000E+00  9.000E+00
      21     1     1     2   511   512 -8.004190088E+00  1.793128090E+01 -7.481339745E+00  2.101352751E+01  8.429369702E-07  0.00000E+00  9.000E+00
</event>
<event>
      5  10001  2.02673E+08  9.64357E+00 -1.00000E+00  1.97538E-01
      -2    -1     0     0     0   515  0.000000000E+00  0.000000000E+00  6.713667006E+01  6.713667006E+01  0.000000000E+00  0.00000E+00  9.000E+00
      21    -1     0     0   515   511  0.000000000E+00  0.000000000E+00 -6.668115836E+00  6.668115836E+00  0.000000000E+00  0.00000E+00  9.000E+00
      21     1     1     2   514   513  6.531905988E+00 -1.119986009E+01  8.718506703E+00  1.562418065E+01  2.384185791E-07  0.00000E+00  9.000E+00
      21     1     1     2   513   511 -1.455757892E+01  1.149681887E+01  3.608482128E+01  4.057356621E+01  0.000000000E+00  0.00000E+00  9.000E+00
      -2     1     1     2     0   514  8.025672934E+00 -2.969587819E-01  1.566522624E+01  1.760703904E+01  3.300000131E-01  0.00000E+00  9.000E+00
</event>
<event>
      5  10001  2.02673E+08  5.94516E+00 -1.00000E+00  2.26014E-01
      21    -1     0     0   512   514  0.000000000E+00  0.000000000E+00  1.422692061E+02  1.422692061E+02  0.000000000E+00  0.00000E+00  9.000E+00
      -1    -1     0     0     0   512  0.000000000E+00  0.000000000E+00 -1.296621084E+01  1.296621084E+01  0.000000000E+00  0.00000E+00  9.000E+00
      -1     1     1     2     0   511  1.581039015E+01  2.355683785E+01  8.366546499E+00  2.958041660E+01  3.300000131E-01  0.00000E+00  9.000E+00
      21     1     1     2   511   513 -1.275885090E+01 -2.247640441E+01  1.192232289E+02  1.219924397E+02  1.348699152E-06  0.00000E+00  9.000E+00
      21     1     1     2   513   514 -3.051539248E+00 -1.080433443E+00  1.713219872E+00  3.662560653E+00  4.712160915E-08  0.00000E+00  9.000E+00
</event>
<event>
      5  10001  2.02673E+08  2.50930E+01 -1.00000E+00  1.58592E-01
       2    -1     0     0   515     0  0.000000000E+00  0.000000000E+00  6.944431293E+01  6.944431293E+01  0.000000000E+00  0.00000E+00  9.000E+00
      21    -1     0     0   511   512  0.000000000E+00  0.000000000E+00 -3.976497167E+01  3.976497167E+01  0.000000000E+00  0.00000E+00  9.000E+00
      21     1     1     2   511   513  3.137289745E+01 -2.680966639E+01 -1.434689582E+01  4.369039169E+01  8.596304120E-07  0.00000E+00  9.000E+00
       2     1     1     2   513     0 -6.676677277E+00  2.236779734E+01  2.315283996E+01  3.287946586E+01  3.300000131E-01  0.00000E+00  9.000E+00
      21     1     1     2   515   512 -2.469622017E+01  4.441869052E+00  2.087339712E+01  3.263942706E+01  5.840038640E-07  0.00000E+00  9.000E+00
</event>
<event>
      5  10001  2.02673E+08  1.41647E+01 -1.00000E+00  1.79712E-01
      21    -1     0     0   511   514  0.000000000E+00  0.000000000E+00  9.984836511E+00  9.984836511E+00  0.000000000E+00  0.00000E+00  9.000E+00
      -1    -1     0     0     0   512  0.000000000E+00  0.000000000E+00 -1.100671396E+02  1.100671396E+02  0.000000000E+00  0.00000E+00  9.000E+00
      -1     1     1     2     0   513 -7.378076866E+00 -1.659442993E+00 -4.939090818E+01  4.996759430E+01  3.300000131E-01  0.00000E+00  9.000E+00
      21     1     1     2   511   512  1.240132324E+01  1.603617131E+01 -3.596634518E+00  2.058852565E+01  6.460989531E-07  0.00000E+00  9.000E+00
      21     1     1     2   513   514 -5.023246372E+00 -1.437672832E+01 -4.709476042E+01  4.949585619E+01  0.000000000E+00  0.00000E+00  9.000E+00
</event>
<event>
      5  10001  2.02673E+08  1.83696E+01 -1.00000E+00  1.69432E-01
      21    -1     0     0   515   511  0.000000000E+00  0.000000000E+00  1.631274242E+01  1.631274242E+01  0.000000000E+00  0.00000E+00  9.000E+00
      21    -1     0     0   514   515  0.000000000E+00  0.000000000E+00 -1.988814037E+02  1.988814037E+02  0.000000000E+00  0.00000E+00  9.000E+00
      21     1     1     2   514   516 -1.343546362E+01  5.318633982E+00 -7.565767713E+01  7.702521443E+01  0.000000000E+00  0.00000E+00  9.000E+00
      21     1     1     2   516   513  3.174172144E+01 -6.843395094E+00 -1.139580783E+02  1.184939347E+02  1.907348633E-06  0.00000E+00  9.000E+00
      21     1     1     2   513   511 -1.830625782E+01  1.524761111E+00  7.047094174E+00  1.967499703E+01  7.444617746E-07  0.00000E+00  9.000E+00
</event>
<event>
      5  10001  2.02673E+08  1.01285E+01 -1.00000E+00  1.95060E-01
       2    -1     0     0   515     0  0.000000000E+00  0.000000000E+00  8.311716902E+01  8.311716902E+01  0.000000000E+00  0.00000E+00  9.000E+00
      21    -1     0     0   514   513  0.000000000E+00  0.000000000E+00 -3.561806345E+01  3.561806345E+01  0.000000000E+00  0.00000E+00  9.000E+00
      21     1     1     2   515   513 -2.354365902E+01  1.499871072E+01  3.322698779E+01  4.339698055E+01  8.259061849E-07  0.00000E+00  9.000E+00
       2     1     1     2   512     0  2.279126266E+01 -2.509913794E+01  3.716396777E+01  5.030584240E+01  3.300000131E-01  0.00000E+00  9.000E+00
      21     1     1     2   514   512  7.523963646E-01  1.010042722E+01 -2.289184999E+01  2.503240952E+01  0.000000000E+00  0.00000E+00  9.000E+00
</event>
<event>
      5  10001  2.02673E+08  1.43282E+01 -1.00000E+00  1.79231E-01
      21    -1     0     0   511   512  0.000000000E+00  0.000000000E+00  1.179257001E+01  1.179257001E+01  0.000000000E+00  0.00000E+00  9.000E+00
       5    -1     0     0   514     0  0.000000000E+00  0.000000000E+00 -1.798260090E+02  1.798260090E+02  0.000000000E+00  0.00000E+00  9.000E+00
      21     1     1     2   514   512  2.755234877E+01  1.255003689E+01 -1.284746694E+01  3.288909782E+01  2.384185791E-07  0.00000E+00  9.000E+00
       5     1     1     2   513     0 -8.450286368E+00 -1.305557767E+00 -7.101572471E+01  7.168950396E+01  4.800000191E+00  0.00000E+00  9.000E+00
      21     1     1     2   511   513 -1.910206240E+01 -1.124447912E+01 -8.417024732E+01  8.703997721E+01  1.348699152E-06  0.00000E+00  9.000E+00
</event>
<event>
      5  10001  2.02673E+08  3.28477E+01 -1.00000E+00  1.50320E-01
      21    -1     0     0   513   512  0.000000000E+00  0.000000000E+00  1.044775072E+00  1.044775072E+00  0.000000000E+00  0.00000E+00  9.000E+00
       2    -1     0     0   512     0  0.000000000E+00  0.000000000E+00 -6.480527324E+02  6.480527324E+02  0.000000000E+00  0.00000E+00  9.000E+00
      21     1     1     2   513   515 -4.628765252E-01  1.234148978E+01 -8.411381513E+01  8.501564868E+01  9.536743164E-07  0.00000E+00  9.000E+00
       2     1     1     2   514     0  1.376326506E+01 -2.076990519E+00 -4.155164984E+02  4.157496972E+02  3.300000131E-01  0.00000E+00  9.000E+00
      21     1     1     2   515   514 -1.330038853E+01 -1.026449926E+01 -1.473776438E+02  1.483321616E+02  1.907348633E-06  0.00000E+00  9.000E+00
</event>
<event>
      5  10001  2.02673E+08  1.37429E+01 -1.00000E+00  1.80991E-01
      21    -1     0     0   513   512  0.000000000E+00  0.000000000E+00  4.085456374E+02  4.085456374E+02  0.000000000E+00  0.00000E+00  9.000E+00
       2    -1     0     0   514     0  0.000000000E+00  0.000000000E+00 -2.440876345E+02  2.440876345E+02  0.000000000E+00  0.00000E+00  9.000E+00
      21     1     1     2   514   512 -1.740826262E+01 -8.118242945E-01 -4.303529068E-01  1.743249466E+01  8.992699545E-07  0.00000E+00  9.000E+00
       2     1     1     2   511     0  2.993472110E+01  6.464764203E+00 -2.340401859E+02  2.360355868E+02  3.300000131E-01  0.00000E+00  9.000E+00
      21     1     1     2   513   511 -1.252645848E+01 -5.652939908E+00  3.989285417E+02  3.991651904E+02  7.629394531E-06  0.00000E+00  9.000E+00
</event>
<event>
      5  10001  2.02673E+08  1.18156E+01 -1.00000E+00  1.87684E-01
       2    -1     0     0   515     0  0.000000000E+00  0.000000000E+00  2.228357874E+02  2.228357874E+02  0.000000000E+00  0.00000E+00  9.000E+00
      21    -1     0     0   511   512  0.000000000E+00  0.000000000E+00 -7.480234327E+02  7.480234327E+02  0.000000000E+00  0.00000E+00  9.000E+00
      21     1     1     2   511   513 -2.292539278E+01 -1.001097169E+01 -3.841771205E+01  4.584445209E+01  4.768371582E-07  0.00000E+00  9.000E+00
       2     1     1     2   513     0  3.140528842E+01  1.782963579E+00  2.179436124E+02  2.202021757E+02  3.300000131E-01  0.00000E+00  9.000E+00
      21     1     1     2   515   512 -8.479895640E+00  8.228008108E+00 -7.047135457E+02  7.048125923E+02  7.629394531E-06  0.00000E+00  9.000E+00
</event>
<event>
      5  10001  2.02673E+08  1.33739E+01 -1.00000E+00  1.82160E-01
      21    -1     0     0   514   512  0.000000000E+00  0.000000000E+00  2.242568963E+02  2.242568963E+02  0.000000000E+00  0.00000E+00  9.000E+00
      21    -1     0     0   511   516  0.000000000E+00  0.000000000E+00 -2.844965743E+00  2.844965743E+00  0.000000000E+00  0.00000E+00  9.000E+00
      21     1     1     2   514   516 -2.140031900E+01 -8.058210029E+00  1.319840944E+02  1.339503997E+02  0.000000000E+00  0.00000E+00  9.000E+00
      21     1     1     2   511   513  1.200004351E+01 -2.156396569E+00  4.190720348E+01  4.364475678E+01  8.259061849E-07  0.00000E+00  9.000E+00
      21     1     1     2   513   512  9.400275493E+00  1.021460660E+01  4.752063265E+01  4.950670555E+01  0.000000000E+00  0.00000E+00  9.000E+00
</event>
<event>
      5  10001  2.02673E+08  1.02690E+01 -1.00000E+00  1.94376E-01
      21    -1     0     0   514   513  0.000000000E+00  0.000000000E+00  9.861289759E+01  9.861289759E+01  0.000000000E+00  0.00000E+00  9.000E+00
      21    -1     0     0   512   515  0.000000000E+00  0.000000000E+00 -1.022044104E+02  1.022044104E+02  0.000000000E+00  0.00000E+00  9.000E+00
      21     1     1     2   511   513 -8.575297587E+00 -3.937335946E+01  5.515887338E-01  4.030014161E+01  7.354594874E-07  0.00000E+00  9.000E+00
      21     1     1     2   512   511 -1.077163237E+00  4.287787091E+01 -7.635586649E+01  8.757791070E+01  1.348699152E-06  0.00000E+00  9.000E+00
      21     1     1     2   514   515  9.652460823E+00 -3.504511454E+00  7.221276494E+01  7.293925569E+01  9.536743164E-07  0.00000E+00  9.000E+00
</event>
<event>
      5  10001  2.02673E+08  5.72697E+00 -1.00000E+00  2.28579E-01
       1    -1     0     0   511     0  0.000000000E+00  0.000000000E+00  7.797525296E+01  7.797525296E+01  0.000000000E+00  0.00000E+00  9.000E+00
      21    -1     0     0   512   511  0.000000000E+00  0.000000000E+00 -4.387109621E+01  4.387109621E+01  0.000000000E+00  0.00000E+00  9.000E+00
      21     1     1     2   516   514  2.095707578E+01  1.534290433E+01 -9.504177797E+00  2.765742457E+01  3.576278687E-07  0.00000E+00  9.000E+00
       1     1     1     2   514     0 -2.625005256E+01 -1.752968865E+01  6.488431522E+01  7.215565470E+01  3.300000131E-01  0.00000E+00  9.000E+00
      21     1     1     2   512   516  5.292976779E+00  2.186784324E+00 -2.127598068E+01  2.203326990E+01  4.129530925E-07  0.00000E+00  9.000E+00
</event>
<event>
      5  10001  2.02673E+08  1.72193E+01 -1.00000E+00  1.71874E-01
       1    -1     0     0   512     0  0.000000000E+00  0.000000000E+00  3.973765120E+02  3.973765120E+02  0.000000000E+00  0.00000E+00  9.000E+00
      21    -1     0     0   513   511  0.000000000E+00  0.000000000E+00 -2.908189387E+00  2.908189387E+00  0.000000000E+00  0.00000E+00  9.000E+00
      21     1     1     2   512   514 -1.881480377E+01  2.498077404E+00  4.977720189E+01  5.327294867E+01  6.743495762E-07  0.00000E+00  9.000E+00
       1     1     1     2   513     0  1.548220350E+01 -1.418218256E+01  2.988810450E+02  2.996177913E+02  3.300000131E-01  0.00000E+00  9.000E+00
      21     1     1     2   514   511  3.332600270E+00  1.168410515E+01  4.581007581E+01  4.739396146E+01  6.743495762E-07  0.00000E+00  9.000E+00
</event>
<event>
      5  10001  2.02673E+08  1.81483E+01 -1.00000E+00  1.69884E-01
      -3    -1     0     0     0   515  0.000000000E+00  0.000000000E+00  8.735787164E+01  8.735787164E+01  0.000000000E+00  0.00000E+00  9.000E+00
      -1    -1     0     0     0   511  0.000000000E+00  0.000000000E+00 -2.815800145E+02  2.815800145E+02  0.000000000E+00  0.00000E+00  9.000E+00
      -3     1     1     2     0   512  1.961345769E+01  2.422093075E+01  7.775912266E+01  8.377393608E+01  5.000000000E-01  0.00000E+00  9.000E+00
      21     1     1     2   512   511 -5.503583783E+00 -1.280733756E+01 -1.439431340E+00  1.401389640E+01  3.964941113E-07  0.00000E+00  9.000E+00
      -1     1     1     2     0   515 -1.410987391E+01 -1.141359319E+01 -2.705418342E+02  2.711500537E+02  3.300000131E-01  0.00000E+00  9.000E+00
</event>
<event>
      5  10001  2.02673E+08  3.58286E+01 -1.00000E+00  1.47838E-01
       1    -1     0     0   511     0  0.000000000E+00  0.000000000E+00  6.500427175E+02  6.500427175E+02  0.000000000E+00  0.00000E+00  9.000E+00
      21    -1     0     0   512   511  0.000000000E+00  0.000000000E+00 -1.421442042E+01  1.421442042E+01  0.000000000E+00  0.00000E+00  9.000E+00
      21     1     1     2   512   514 -1.319647226E+01  2.623139192E+01  3.141981623E+01  4.300508870E+01  8.920806376E-07  0.00000E+00  9.000E+00
       1     1     1     2   513     0  2.912791262E+01 -2.392773153E+01  6.039737497E+02  6.051490484E+02  3.300000131E-01  0.00000E+00  9.000E+00
      21     1     1     2   514   513 -1.593144036E+01 -2.303660390E+00  4.347311913E-01  1.610300079E+01  1.099661274E-06  0.00000E+00  9.000E+00
</event>
<event>
      5  10001  2.02673E+08  7.28618E+00 -1.00000E+00  2.13053E-01
      21    -1     0     0   515   513  0.000000000E+00  0.000000000E+00  2.514867658E+00  2.514867658E+00  0.000000000E+00  0.00000E+00  9.000E+00
      21    -1     0     0   512   511  0.000000000E+00  0.000000000E+00 -7.061003930E+02  7.061003930E+02  0.000000000E+00  0.00000E+00  9.000E+00
      21     1     1     2   515   516  7.075726090E+00  1.772295928E+01 -4.186547885E+01  4.600964578E+01  1.907348633E-06  0.00000E+00  9.000E+00
      21     1     1     2   512   513 -1.050821810E+01 -2.414996413E+01 -5.638283194E+02  5.644431036E+02  1.525878906E-05  0.00000E+00  9.000E+00
      21     1     1     2   516   511  3.432492010E+00  6.427004858E+00 -9.789172711E+01  9.816251132E+01  1.348699152E-06  0.00000E+00  9.000E+00
</event>
<event>
      5  10001  2.02673E+08  1.61811E+01 -1.00000E+00  1.74292E-01
       1    -1     0     0   511     0  0.000000000E+00  0.000000000E+00  1.615827193E+01  1.615827193E+01  0.000000000E+00  0.00000E+00  9.000E+00
      21    -1     0     0   512   511  0.000000000E+00  0.000000000E+00 -1.537842411E+02  1.537842411E+02  0.000000000E+00  0.00000E+00  9.000E+00
      21     1     1     2   516   514  2.173651182E+01  3.577260264E+01 -7.421215133E+01  8.520327724E+01  0.000000000E+00  0.00000E+00  9.000E+00
       1     1     1     2   514     0 -2.687119584E+01 -2.042803113E+01 -2.204091873E+01  4.031471965E+01  3.300000131E-01  0.00000E+00  9.000E+00
      21     1     1     2   512   516  5.134684019E+00 -1.534457152E+01 -4.137289906E+01  4.442451611E+01  4.768371582E-07  0.00000E+00  9.000E+00
</event>
<event>
      5  10001  2.02673E+08  1.01288E+01 -1.00000E+00  1.95059E-01
      21    -1     0     0   513   514  0.000000000E+00  0.000000000E+00  2.238856715E+02  2.238856715E+02  0.000000000E+00  0.00000E+00  9.000E+00
      21    -1     0     0   512   515  0.000000000E+00  0.000000000E+00 -4.806892295E+00  4.806892295E+00  0.000000000E+00  0.00000E+00  9.000E+00
      21     1     1     2   513   515 -7.938690181E+00 -1.925800076E+01  2.159510405E+01  3.000403163E+01  5.331201500E-07  0.00000E+00  9.000E+00
      21     1     1     2   511   514 -4.906362699E-01  5.312135106E+00  6.180121236E+01  6.203103539E+01  6.743495762E-07  0.00000E+00  9.000E+00
      21     1     1     2   512   511  8.429326451E+00  1.394586565E+01  1.356824628E+02  1.366574968E+02  1.907348633E-06  0.00000E+00  9.000E+00
</event>
<event>
      5  10001  2.02673E+08  1.30168E+01 -1.00000E+00  1.83338E-01
      21    -1     0     0   512   511  0.000000000E+00  0.000000000E+00  1.386472672E+00  1.386472672E+00  0.000000000E+00  0.00000E+00  9.000E+00
       1    -1     0     0   514     0  0.000000000E+00  0.000000000E+00 -5.666070873E+02  5.666070873E+02  0.000000000E+00  0.00000E+00  9.000E+00
      21     1     1     2   513   511  1.998075371E-02  9.515970261E+00 -7.057203479E+01  7.121071678E+01  0.000000000E+00  0.00000E+00  9.000E+00
       1     1     1     2   512     0  9.048506410E+00 -2.084773937E+01 -4.265338461E+02  4.271390107E+02  3.300000131E-01  0.00000E+00  9.000E+00
      21     1     1     2   514   513 -9.068487164E+00  1.133176911E+01 -6.811473373E+01  6.964383247E+01  1.907348633E-06  0.00000E+00  9.000E+00
</event>
<event>
      5  10001  2.02673E+08  1.14309E+01 -1.00000E+00  1.89220E-01
      21    -1     0     0   515   514  0.000000000E+00  0.000000000E+00  3.302860578E+00  3.302860578E+00  0.000000000E+00  0.00000E+00  9.000E+00
      21    -1     0     0   511   513  0.000000000E+00  0.000000000E+00 -2.117496287E+02  2.117496287E+02  0.000000000E+00  0.00000E+00  9.000E+00
      21     1     1     2   515   513 -7.026196834E+00  2.255434232E+01 -1.274904861E+02  1.296606720E+02  3.015782986E-06  0.00000E+00  9.000E+00
      21     1     1     2   512   514  8.918424548E-01 -1.626427706E+01 -6.657782405E+01  6.854143817E+01  9.536743164E-07  0.00000E+00  9.000E+00
      21     1     1     2   511   512  6.134354379E+00 -6.290065262E+00 -1.437845793E+01  1.685037914E+01  3.371747881E-07  0.00000E+00  9.000E+00
</event>
<event>
      5  10001  2.02673E+08  6.78136E+00 -1.00000E+00  2.17447E-01
      21    -1     0     0   511   513  0.000000000E+00  0.000000000E+00  8.978423071E+01  8.978423071E+01  0.000000000E+00  0.00000E+00  9.000E+00
       1    -1     0     0   514     0  0.000000000E+00  0.000000000E+00 -2.065262310E+01  2.065262310E+01  0.000000000E+00  0.00000E+00  9.000E+00
      21     1     1     2   514   512  2.117034229E+01 -2.144139494E+01  9.971190520E+00  3.173864285E+01  3.576278687E-07  0.00000E+00  9.000E+00
       1     1     1     2   511     0 -1.571390605E+01  1.741499053E+01  4.835925451E+00  2.395211501E+01  3.300000131E-01  0.00000E+00  9.000E+00
      21     1     1     2   512   513 -5.456436235E+00  4.026404410E+00  5.432449165E+01  5.474609595E+01  6.743495762E-07  0.00000E+00  9.000E+00
</event>
<event>
      5  10001  2.02673E+08  6.59401E+00 -1.00000E+00  2.19214E-01
      21    -1     0     0   515   514  0.000000000E+00  0.000000000E+00  3.775058893E+02  3.775058893E+02  0.000000000E+00  0.00000E+00  9.000E+00
      21    -1     0     0   512   511  0.000000000E+00  0.000000000E+00 -3.706213200E+01  3.706213200E+01  0.000000000E+00  0.00000E+00  9.000E+00
      21     1     1     2   515   513 -9.236089977E+00  1.936486587E+01  3.655012477E+02  3.661303941E+02  0.000000000E+00  0.00000E+00  9.000E+00
      21     1     1     2   512   514  1.439265933E+01 -1.525502361E+01  1.545295099E+00  2.102979612E+01  1.357233231E-06  0.00000E+00  9.000E+00
      21     1     1     2   513   511 -5.156569354E+00 -4.109842256E+00 -2.660278549E+01  2.740783112E+01  9.536743164E-07  0.00000E+00  9.000E+00
</event>
<event>
      5  10001  2.02673E+08  1.23059E+01 -1.00000E+00  1.85834E-01
      21    -1     0     0   516   512  0.000000000E+00  0.000000000E+00  1.732626440E+02  1.732626440E+02  0.000000000E+00  0.00000E+00  9.000E+00
      21    -1     0     0   517   516  0.000000000E+00  0.000000000E+00 -4.765224094E+00  4.765224094E+00  0.000000000E+00  0.00000E+00  9.000E+00
      21     1     1     2   517   511  2.570545856E+01 -1.137281198E+01  8.124056032E+01  8.596592402E+01  1.651812370E-06  0.00000E+00  9.000E+00
      21     1     1     2   511   514 -8.792918231E+00  1.394325393E+00  1.809663555E+01  2.016798881E+01  2.384185791E-07  0.00000E+00  9.000E+00
      21     1     1     2   514   512 -1.691254033E+01  9.978486587E+00  6.916022406E+01  7.189395528E+01  9.536743164E-07  0.00000E+00  9.000E+00
</event>
<event>
      5  10001  2.02673E+08  2.10803E+01 -1.00000E+00  1.64465E-01
      21    -1     0     0   513   511  0.000000000E+00  0.000000000E+00  1.064316137E+02  1.064316137E+02  0.000000000E+00  0.00000E+00  9.000E+00
      21    -1     0     0   515   512  0.000000000E+00  0.000000000E+00 -3.008950484E+01  3.008950484E+01  0.000000000E+00  0.00000E+00  9.000E+00
      21     1     1     2   513   512 -4.737642168E+01 -7.770062404E+00  8.304317235E+00  4.872228326E+01  8.259061849E-07  0.00000E+00  9.000E+00
      21     1     1     2   515   516  2.867426990E+01  1.787617607E+01  4.704508728E+01  5.792246250E+01  9.536743164E-07  0.00000E+00  9.000E+00
      21     1     1     2   516   511  1.870215178E+01 -1.010611366E+01  2.099270436E+01  2.987637279E+01  5.331201500E-07  0.00000E+00  9.000E+00
</event>
<event>
      5  10001  2.02673E+08  1.42656E+01 -1.00000E+00  1.79414E-01
      21    -1     0     0   516   512  0.000000000E+00  0.000000000E+00  6.060099737E+02  6.060099737E+02  0.000000000E+00  0.00000E+00  9.000E+00
      -4    -1     0     0     0   514  0.000000000E+00  0.000000000E+00 -1.772995385E+01  1.772995385E+01  0.000000000E+00  0.00000E+00  9.000E+00
      -4     1     1     2     0   511 -1.063223559E+01 -1.113325039E+01 -6.217117096E+00  1.667022024E+01  1.500000000E+00  0.00000E+00  9.000E+00
      21     1     1     2   516   514  1.300188244E+01  2.519952460E+01  2.624203196E+01  3.863559535E+01  3.371747881E-07  0.00000E+00  9.000E+00
      21     1     1     2   511   512 -2.369646845E+00 -1.406627421E+01  5.682551050E+02  5.684341120E+02  1.525878906E-05  0.00000E+00  9.000E+00
</event>
<event>
      5  10001  2.02673E+08  5.04421E+00 -1.00000E+00  2.37763E-01
      21    -1     0     0   513   515  0.000000000E+00  0.000000000E+00  1.837122222E+01  1.837122222E+01  0.000000000E+00  0.00000E+00  9.000E+00
      21    -1     0     0   511   514  0.000000000E+00  0.000000000E+00 -6.786492428E+02  6.786492428E+02  0.000000000E+00  0.00000E+00  9.000E+00
      21     1     1     2   513   512 -2.886448295E+01  1.485529902E+01  7.926502477E-01  3.247255117E+01  4.393947928E-07  0.00000E+00  9.000E+00
      21     1     1     2   511   515  3.049471004E+01 -1.008178326E+01 -1.476699377E+02  1.511224014E+02  2.697398305E-06  0.00000E+00  9.000E+00
      21     1     1     2   512   514 -1.630227087E+00 -4.773515756E+00 -5.134007331E+02  5.134255125E+02  7.629394531E-06  0.00000E+00  9.000E+00
</event>
<event>
      5  10001  2.02673E+08  1.72339E+01 -1.00000E+00  1.71841E-01
      21    -1     0     0   516   511  0.000000000E+00  0.000000000E+00  9.322438775E+01  9.322438775E+01  0.000000000E+00  0.00000E+00  9.000E+00
      21    -1     0     0   512   517  0.000000000E+00  0.000000000E+00 -6.195679106E+00  6.195679106E+00  0.000000000E+00  0.00000E+00  9.000E+00
      21     1     1     2   516   517 -1.448077244E+01  1.216110962E+01  2.309793178E+01  2.985129495E+01  3.371747881E-07  0.00000E+00  9.000E+00
      21     1     1     2   513   511  1.037039303E+01 -2.376641917E+00  5.398714588E+01  5.502549771E+01  6.743495762E-07  0.00000E+00  9.000E+00
      21     1     1     2   512   513  4.110379416E+00 -9.784467700E+00  9.943630979E+00  1.454327419E+01  3.153981341E-07  0.00000E+00  9.000E+00
</event>
<event>
      5  10001  2.02673E+08  1.05061E+01 -1.00000E+00  1.93254E-01
      21    -1     0     0   514   513  0.000000000E+00  0.000000000E+00  8.482110319E+01  8.482110319E+01  0.000000000E+00  0.00000E+00  9.000E+00
      21    -1     0     0   512   515  0.000000000E+00  0.000000000E+00 -5.033681165E+00  5.033681165E+00  0.000000000E+00  0.00000E+00  9.000E+00
      21     1     1     2   514   515 -1.764202057E+01  6.266768583E+00  4.654991977E+01  5.017378109E+01  6.743495762E-07  0.00000E+00  9.000E+00
      21     1     1     2   511   513  9.763343847E+00 -5.397272879E+00  2.810441275E+01  3.023758346E+01  3.371747881E-07  0.00000E+00  9.000E+00
      21     1     1     2   512   511  7.878676725E+00 -8.694957040E-01  5.133089508E+00  9.443419805E+00  1.788139343E-07  0.00000E+00  9.000E+00
</event>
<event>
      5  10001  2.02673E+08  5.14100E+00 -1.00000E+00  2.36338E-01
      21    -1     0     0   512   511  0.000000000E+00  0.000000000E+00  9.526746239E+01  9.526746239E+01  0.000000000E+00  0.00000E+00  9.000E+00
       4    -1     0     0   514     0  0.000000000E+00  0.000000000E+00 -2.874940527E+01  2.874940527E+01  0.000000000E+00  0.00000E+00  9.000E+00
      21     1     1     2   513   511  2.772898501E+00 -1.940814842E+01  8.586280505E+01  8.807262050E+01  1.651812370E-06  0.00000E+00  9.000E+00
       4     1     1     2   512     0 -1.024066916E+00  2.424108772E+01 -1.235581212E+01  2.726894094E+01  1.500000000E+00  0.00000E+00  9.000E+00
      21     1     1     2   514   513 -1.748831585E+00 -4.832939304E+00 -6.988935811E+00  8.675306219E+00  1.192092896E-07  0.00000E+00  9.000E+00
</event>
<event>
      5  10001  2.02673E+08  8.69816E+00 -1.00000E+00  2.02967E-01
      21    -1     0     0   515   511  0.000000000E+00  0.000000000E+00  9.235619815E+01  9.235619815E+01  0.000000000E+00  0.00000E+00  9.000E+00
      21    -1     0     0   514   512  0.000000000E+00  0.000000000E+00 -6.860921236E+01  6.860921236E+01  0.000000000E+00  0.00000E+00  9.000E+00
      21     1     1     2   514   513  7.431675880E+00  3.266110948E+01 -5.660762946E+01  6.577538743E+01  1.348699152E-06  0.00000E+00  9.000E+00
      21     1     1     2   513   511 -7.526940191E+00 -2.396346628E+01  8.249352692E+01  8.623273467E+01  1.348699152E-06  0.00000E+00  9.000E+00
      21     1     1     2   515   512  9.526431082E-02 -8.697643196E+00 -2.138911675E+00  8.957288407E+00  1.712013080E-07  0.00000E+00  9.000E+00
</event>
<event>
      5  10001  2.02673E+08  1.07623E+01 -1.00000E+00  1.92084E-01
      21    -1     0     0   516   513  0.000000000E+00  0.000000000E+00  7.404805180E+01  7.404805180E+01  0.000000000E+00  0.00000E+00  9.000E+00
      21    -1     0     0   517   516  0.000000000E+00  0.000000000E+00 -9.856876550E+00  9.856876550E+00  0.000000000E+00  0.00000E+00  9.000E+00
      21     1     1     2   517   512 -1.031486141E+01 -1.675044660E+01  5.524274277E+01  5.864072353E+01  6.743495762E-07  0.00000E+00  9.000E+00
      21     1     1     2   511   513  5.788466234E-01  1.233237240E+01  1.983873157E+00  1.250432825E+01  4.846887579E-07  0.00000E+00  9.000E+00
      21     1     1     2   512   511  9.736014783E+00  4.418074209E+00  6.964559327E+00  1.275987657E+01  1.460009660E-07  0.00000E+00  9.000E+00
</event>
<event>
      5  10001  2.02673E+08  2.61518E+01 -1.00000E+00  1.57262E-01
       2    -1     0     0   512     0  0.000000000E+00  0.000000000E+00  5.351248068E+02  5.351248068E+02  0.000000000E+00  0.00000E+00  9.000E+00
      21    -1     0     0   511   512  0.000000000E+00  0.000000000E+00 -5.831621203E+00  5.831621203E+00  0.000000000E+00  0.00000E+00  9.000E+00
      21     1     1     2   513   514 -2.276854896E+01 -1.216558044E+01  2.642240810E+01  3.693984054E+01  1.348699152E-06  0.00000E+00  9.000E+00
       2     1     1     2   514     0  1.223010318E+01  1.649898852E+01  3.977599577E+02  3.982899508E+02  3.300000131E-01  0.00000E+00  9.000E+00
      21     1     1     2   511   513  1.053844578E+01 -4.333408072E+00  1.051108198E+02  1.057266367E+02  1.348699152E-06  0.00000E+00  9.000E+00
</event>
<event>
      5  10001  2.02673E+08  1.23156E+01 -1.00000E+00  1.85798E-01
      21    -1     0     0   515   513  0.000000000E+00  0.000000000E+00  6.611266488E+02  6.611266488E+02  0.000000000E+00  0.00000E+00  9.000E+00
      21    -1     0     0   511   515  0.000000000E+00  0.000000000E+00 -1.949279011E+00  1.949279011E+00  0.000000000E+00  0.00000E+00  9.000E+00
      21     1     1     2   516   513 -1.983804837E+01  1.331187905E+01  5.682208469E+02  5.687228544E+02  1.078959322E-05  0.00000E+00  9.000E+00
      21     1     1     2   512   516  7.847338288E+00 -1.415839804E+00  3.533113620E+01  3.621980820E+01  6.743495762E-07  0.00000E+00  9.000E+00
      21     1     1     2   511   512  1.199071008E+01 -1.189603925E+01  5.562538670E+01  5.813326520E+01  6.743495762E-07  0.00000E+00  9.000E+00
</event>
<event>
      5  10001  2.02673E+08  5.69720E+00 -1.00000E+00  2.28941E-01
      -2    -1     0     0     0   514  0.000000000E+00  0.000000000E+00  8.649824127E+00  8.649824127E+00  0.000000000E+00  0.00000E+00  9.000E+00
      -4    -1     0     0     0   512  0.000000000E+00  0.000000000E+00 -7.355413452E+02  7.355413452E+02  0.000000000E+00  0.00000E+00  9.000E+00
      -2     1     1     2     0   512  1.894505011E+01  9.971159007E+00 -1.296202404E+01  2.502922098E+01  3.300000131E-01  0.00000E+00  9.000E+00
      21     1     1     2   516   514 -1.656226698E+01 -1.514548877E+01 -4.576860704E+01  5.097509106E+01  9.536743164E-07  0.00000E+00  9.000E+00
      -4     1     1     2     0   516 -2.382783128E+00  5.174329762E+00 -6.681608900E+02  6.681868573E+02  1.500000000E+00  0.00000E+00  9.000E+00
</event>
<event>
      5  10001  2.02673E+08  7.63225E+00 -1.00000E+00  2.10311E-01
      21    -1     0     0   511   514  0.000000000E+00  0.000000000E+00  2.699134737E+00  2.699134737E+00  0.000000000E+00  0.00000E+00  9.000E+00
      21    -1     0     0   513   511  0.000000000E+00  0.000000000E+00 -1.814602494E+02  1.814602494E+02  0.000000000E+00  0.00000E+00  9.000E+00
      21     1     1     2   515   514 -1.102247448E+01 -1.761031906E+01 -7.867689312E+01  8.137365539E+01  9.536743164E-07  0.00000E+00  9.000E+00
      21     1     1     2   512   515  5.252494735E+00  1.442789934E+01 -5.100001360E+01  5.326119007E+01  6.743495762E-07  0.00000E+00  9.000E+00
      21     1     1     2   513   512  5.769979742E+00  3.182419720E+00 -4.908420791E+01  4.952453865E+01  6.743495762E-07  0.00000E+00  9.000E+00
</event>
<event>
      5  10001  2.02673E+08  2.49360E+01 -1.00000E+00  1.58796E-01
       2    -1     0     0   512     0  0.000000000E+00  0.000000000E+00  3.295256367E+01  3.295256367E+01  0.000000000E+00  0.00000E+00  9.000E+00
      21    -1     0     0   516   511  0.000000000E+00  0.000000000E+00 -3.550073519E+01  3.550073519E+01  0.000000000E+00  0.00000E+00  9.000E+00
      21     1     1     2   512   511 -2.093034284E+01 -1.401906898E+01 -1.985822965E+01  3.207745051E+01  2.384185791E-07  0.00000E+00  9.000E+00
      21     1     1     2   516   514  7.483559027E+00  1.212270890E+01 -1.583854137E-01  1.424741424E+01  2.098102546E-07  0.00000E+00  9.000E+00
       2     1     1     2   514     0  1.344678381E+01  1.896360085E+00  1.746844354E+01  2.212843411E+01  3.300000131E-01  0.00000E+00  9.000E+00
</event>
<event>
      5  10001  2.02673E+08  8.22126E+00 -1.00000E+00  2.06068E-01
       3    -1     0     0   511     0  0.000000000E+00  0.000000000E+00  4.488372890E+00  4.488372890E+00  0.000000000E+00  0.00000E+00  9.000E+00
      21    -1     0     0   514   511  0.000000000E+00  0.000000000E+00 -2.430256518E+02  2.430256518E+02  0.000000000E+00  0.00000E+00  9.000E+00
      21     1     1     2   514   513 -1.400464081E+01 -1.675708690E+01 -2.043607856E+02  2.055243553E+02  2.697398305E-06  0.00000E+00  9.000E+00
       3     1     1     2   512     0  6.405114512E+00  8.211747256E+00 -7.147408240E+00  1.264095445E+01  5.000000000E-01  0.00000E+00  9.000E+00
      21     1     1     2   513   512  7.599526299E+00  8.545339642E+00 -2.702908508E+01  2.934871496E+01  0.000000000E+00  0.00000E+00  9.000E+00
</event>
<event>
      5  10001  2.02673E+08  1.73719E+01 -1.00000E+00  1.71536E-01
      21    -1     0     0   512   513  0.000000000E+00  0.000000000E+00  1.133500061E+02  1.133500061E+02  0.000000000E+00  0.00000E+00  9.000E+00
       1    -1     0     0   513     0  0.000000000E+00  0.000000000E+00 -1.412930159E+02  1.412930159E+02  0.000000000E+00  0.00000E+00  9.000E+00
      21     1     1     2   511   515 -8.390888480E+00  1.725605706E+01  5.984754840E+01  6.284829007E+01  9.536743164E-07  0.00000E+00  9.000E+00
       1     1     1     2   515     0  7.603627715E-01 -2.204898331E+01 -1.385224892E+02  1.402687589E+02  3.300000131E-01  0.00000E+00  9.000E+00
      21     1     1     2   512   511  7.630525708E+00  4.792926251E+00  5.073193108E+01  5.152597302E+01  9.536743164E-07  0.00000E+00  9.000E+00
</event>
<event>
      5  10001  2.02673E+08  1.05728E+01 -1.00000E+00  1.92945E-01
      21    -1     0     0   514   515  0.000000000E+00  0.000000000E+00  1.706804935E+01  1.706804935E+01  0.000000000E+00  0.00000E+00  9.000E+00
      21    -1     0     0   513   511  0.000000000E+00  0.000000000E+00 -1.463418589E+02  1.463418589E+02  0.000000000E+00  0.00000E+00  9.000E+00
      21     1     1     2   514   511 -1.406053311E+01  1.630305162E+01 -1.339285113E+02  1.356478316E+02  0.000000000E+00  0.00000E+00  9.000E+00
      21     1     1     2   516   515  3.928069886E+00 -9.994585127E+00  1.000932997E+01  1.468019589E+01  7.444617746E-07  0.00000E+00  9.000E+00
      21     1     1     2   513   516  1.013246323E+01 -6.308466493E+00 -5.354628235E+00  1.308188075E+01  1.460009660E-07  0.00000E+00  9.000E+00
</event>
<event>
      5  10001  2.02673E+08  4.54207E+00 -1.00000E+00  2.51011E-01
      21    -1     0     0   512   515  0.000000000E+00  0.000000000E+00  5.793372384E+01  5.793372384E+01  0.000000000E+00  0.00000E+00  9.000E+00
      21    -1     0     0   513   512  0.000000000E+00  0.000000000E+00 -1.160972762E+01  1.160972762E+01  0.000000000E+00  0.00000E+00  9.000E+00
      21     1     1     2   516   515  9.914073041E+00  1.892541668E+01  3.977841949E+01  4.515288361E+01  4.768371582E-07  0.00000E+00  9.000E+00
      21     1     1     2   513   511 -1.064086224E+01 -1.421593594E+01  2.113116859E+00  1.788256264E+01  4.674311620E-07  0.00000E+00  9.000E+00
      21     1     1     2   511   516  7.267891958E-01 -4.709480740E+00  4.432459865E+00  6.508005211E+00  8.429369702E-08  0.00000E+00  9.000E+00
</event>
<event>
      5  10001  2.02673E+08  1.14514E+01 -1.00000E+00  1.89136E-01
      21    -1     0     0   514   512  0.000000000E+00  0.000000000E+00  1.145526326E+01  1.145526326E+01  0.000000000E+00  0.00000E+00  9.000E+00
      21    -1     0     0   515   516  0.000000000E+00  0.000000000E+00 -2.497554723E+02  2.497554723E+02  0.000000000E+00  0.00000E+00  9.000E+00
      21     1     1     2   514   516 -7.204213769E+00 -1.689298691E+01 -2.823395164E+01  3.368129641E+01  1.215700987E-06  0.00000E+00  9.000E+00
      21     1     1     2   515   513 -1.085711567E+00  2.479309479E+01 -2.139901851E+02  2.154244081E+02  2.697398305E-06  0.00000E+00  9.000E+00
      21     1     1     2   513   512  8.289925336E+00 -7.900107886E+00  3.923927690E+00  1.210503099E+01  1.332800375E-07  0.00000E+00  9.000E+00
</event>
<event>
      5  10001  2.02673E+08  5.66623E+00 -1.00000E+00  2.29321E-01
      21    -1     0     0   511   514  0.000000000E+00  0.000000000E+00  1.806236844E+02  1.806236844E+02  0.000000000E+00  0.00000E+00  9.000E+00
      21    -1     0     0   512   511  0.000000000E+00  0.000000000E+00 -1.697138769E+01  1.697138769E+01  0.000000000E+00  0.00000E+00  9.000E+00
      21     1     1     2   515   513 -1.740102770E+01 -5.030972855E+00  1.576569608E+02  1.586941201E+02  3.303624740E-06  0.00000E+00  9.000E+00
      21     1     1     2   512   515  2.306496720E+01  4.869735098E+00 -7.110667798E+00  2.462252278E+01  6.474721725E-07  0.00000E+00  9.000E+00
      21     1     1     2   513   514 -5.663939497E+00  1.612377572E-01  1.310600366E+01  1.427842919E+01  1.685873940E-07  0.00000E+00  9.000E+00
</event>
<event>
      5  10001  2.02673E+08  4.34892E+00 -1.00000E+00  2.55094E-01
      21    -1     0     0   516   512  0.000000000E+00  0.000000000E+00  3.184319815E+00  3.184319815E+00  0.000000000E+00  0.00000E+00  9.000E+00
      21    -1     0     0   513   511  0.000000000E+00  0.000000000E+00 -2.915074995E+02  2.915074995E+02  0.000000000E+00  0.00000E+00  9.000E+00
      21     1     1     2   516   514  6.409028528E+00  2.278031510E+01 -1.660636550E+02  1.677413364E+02  2.697398305E-06  0.00000E+00  9.000E+00
      21     1     1     2   513   512 -9.530678016E+00 -1.975237633E+01 -5.046791662E+01  5.502727325E+01  9.536743164E-07  0.00000E+00  9.000E+00
      21     1     1     2   514   511  3.121649489E+00 -3.027938777E+00 -7.179160809E+01  7.192320975E+01  9.536743164E-07  0.00000E+00  9.000E+00
</event>
<event>
      5  10001  2.02673E+08  2.73209E+01 -1.00000E+00  1.55880E-01
      21    -1     0     0   515   512  0.000000000E+00  0.000000000E+00  2.263519569E+01  2.263519569E+01  0.000000000E+00  0.00000E+00  9.000E+00
       1    -1     0     0   513     0  0.000000000E+00  0.000000000E+00 -9.621439254E+02  9.621439254E+02  0.000000000E+00  0.00000E+00  9.000E+00
      21     1     1     2   513   512 -1.211805327E+01 -3.011694130E+01  9.606586245E+00  3.385504198E+01  1.772173494E-06  0.00000E+00  9.000E+00
       1     1     1     2   516     0  1.204837863E+01  4.354304937E+01 -7.219496716E+02  7.233620102E+02  3.300000131E-01  0.00000E+00  9.000E+00
      21     1     1     2   515   516  6.967463541E-02 -1.342610807E+01 -2.271656444E+02  2.275620690E+02  3.814697266E-06  0.00000E+00  9.000E+00
</event>
<event>
      5  10001  2.02673E+08  1.91513E+01 -1.00000E+00  1.67896E-01
      21    -1     0     0   511   513  0.000000000E+00  0.000000000E+00  2.253329093E+02  2.253329093E+02  0.000000000E+00  0.00000E+00  9.000E+00
      21    -1     0     0   512   514  0.000000000E+00  0.000000000E+00 -1.487167428E+01  1.487167428E+01  0.000000000E+00  0.00000E+00  9.000E+00
      21     1     1     2   511   514  3.432568881E+00  1.969729787E+01  2.012713175E+02  2.022619819E+02  0.000000000E+00  0.00000E+00  9.000E+00
      21     1     1     2   517   513 -1.207956990E+00 -3.465367854E+00 -1.119998626E+01  1.178590797E+01  4.298152060E-07  0.00000E+00  9.000E+00
      21     1     1     2   512   517 -2.224611890E+00 -1.623193002E+01  2.038990374E+01  2.615669368E+01  2.384185791E-07  0.00000E+00  9.000E+00
</event>
<event>
      5  10001  2.02673E+08  1.46381E+01 -1.00000E+00  1.78340E-01
      21    -1     0     0   515   511  0.000000000E+00  0.000000000E+00  2.319629014E+02  2.319629014E+02  0.000000000E+00  0.00000E+00  9.000E+00
      21    -1     0     0   512   516  0.000000000E+00  0.000000000E+00 -1.382988544E+02  1.382988544E+02  0.000000000E+00  0.00000E+00  9.000E+00
      21     1     1     2   515   516  2.455766436E+01  1.888849106E+01  9.636819433E+00  3.244568172E+01  2.665600750E-07  0.00000E+00  9.000E+00
      21     1     1     2   512   514 -1.274285881E+01 -1.024642115E+01 -1.261119964E+02  1.271676265E+02  0.000000000E+00  0.00000E+00  9.000E+00
      21     1     1     2   514   511 -1.181480555E+01 -8.642069910E+00  2.101392240E+02  2.106484476E+02  0.000000000E+00  0.00000E+00  9.000E+00
</event>
<event>
      5  10001  2.02673E+08  2.91889E+01 -1.00000E+00  1.53836E-01
      21    -1     0     0   513   512  0.000000000E+00  0.000000000E+00  3.760733243E+02  3.760733243E+02  0.000000000E+00  0.00000E+00  9.000E+00
      21    -1     0     0   517   511  0.000000000E+00  0.000000000E+00 -2.778283406E+00  2.778283406E+00  0.000000000E+00  0.00000E+00  9.000E+00
      21     1     1     2   513   511  1.256436216E+01  1.828427692E+01  3.133075200E+02  3.140919930E+02  0.000000000E+00  0.00000E+00  9.000E+00
      21     1     1     2   515   512  1.582639934E+00 -1.021649799E+00  2.835710319E+00  3.404375197E+00  7.300048300E-08  0.00000E+00  9.000E+00
      21     1     1     2   517   515 -1.414700210E+01 -1.726262712E+01  5.715181062E+01  6.135523955E+01  1.168007728E-06  0.00000E+00  9.000E+00
</event>
<event>
      5  10001  2.02673E+08  2.59245E+01 -1.00000E+00  1.57541E-01
      21    -1     0     0   514   511  0.000000000E+00  0.000000000E+00  3.594768022E+00  3.594768022E+00  0.000000000E+00  0.00000E+00  9.000E+00
      21    -1     0     0   517   516  0.000000000E+00  0.000000000E+00 -1.252003135E+02  1.252003135E+02  0.000000000E+00  0.00000E+00  9.000E+00
      21     1     1     2   514   516  1.010225788E+01  3.991641731E+00 -2.141253013E+01  2.401010755E+01  0.000000000E+00  0.00000E+00  9.000E+00
      21     1     1     2   512   511 -3.956939249E+00 -3.156140654E+00 -9.811320317E+01  9.824367272E+01  0.000000000E+00  0.00000E+00  9.000E+00
      21     1     1     2   517   512 -6.145318634E+00 -8.355010770E-01 -2.079812147E+00  6.541301226E+00  2.384185791E-07  0.00000E+00  9.000E+00
</event>
<event>
      5  10001  2.02673E+08  4.32532E+00 -1.00000E+00  2.55616E-01
      21    -1     0     0   513   512  0.000000000E+00  0.000000000E+00  1.630883411E+02  1.630883411E+02  0.000000000E+00  0.00000E+00  9.000E+00
      21    -1     0     0   515   513  0.000000000E+00  0.000000000E+00 -3.484058122E+02  3.484058122E+02  0.000000000E+00  0.00000E+00  9.000E+00
      21     1     1     2   515   517  1.216934487E+01  3.062706549E+01 -3.458691666E+02  3.474357358E+02  0.000000000E+00  0.00000E+00  9.000E+00
      21     1     1     2   517   511 -1.191900512E+01 -2.137480394E+01  1.182518805E+02  1.207578244E+02  3.015782986E-06  0.00000E+00  9.000E+00
      21     1     1     2   511   512 -2.503397427E-01 -9.252261555E+00  4.229981503E+01  4.330059313E+01  4.768371582E-07  0.00000E+00  9.000E+00
</event>
<event>
      5  10001  2.02673E+08  1.91527E+01 -1.00000E+00  1.67893E-01
      21    -1     0     0   514   511  0.000000000E+00  0.000000000E+00  5.302995614E+01  5.302995614E+01  0.000000000E+00  0.00000E+00  9.000E+00
      21    -1     0     0   512   514  0.000000000E+00  0.000000000E+00 -9.309483934E+00  9.309483934E+00  0.000000000E+00  0.00000E+00  9.000E+00
      21     1     1     2   516   511  8.037461619E+00 -1.521361856E+01  2.318826002E+01  2.887473604E+01  5.840038640E-07  0.00000E+00  9.000E+00
      21     1     1     2   512   513 -5.511394639E-01  7.969463480E+00 -2.346441619E+00  8.325976888E+00  2.648888355E-07  0.00000E+00  9.000E+00
      21     1     1     2   513   516 -7.486322155E+00  7.244155080E+00  2.287865381E+01  2.513872715E+01  3.371747881E-07  0.00000E+00  9.000E+00
</event>
<event>
      5  10001  2.02673E+08  1.39701E+01 -1.00000E+00  1.80295E-01
      -1    -1     0     0     0   515  0.000000000E+00  0.000000000E+00  1.946716628E+02  1.946716628E+02  0.000000000E+00  0.00000E+00  9.000E+00
       2    -1     0     0   513     0  0.000000000E+00  0.000000000E+00 -2.294122790E+02  2.294122790E+02  0.000000000E+00  0.00000E+00  9.000E+00
      -1     1     1     2     0   514  3.386833764E+01  8.498237286E+00  1.340179307E+02  1.384925954E+02  3.300000131E-01  0.00000E+00  9.000E+00
      21     1     1     2   513   515 -2.110747372E+01 -2.812837506E+00  5.625188201E+01  6.014741667E+01  6.743495762E-07  0.00000E+00  9.000E+00
       2     1     1     2   514     0 -1.276086392E+01 -5.685399780E+00 -2.250104290E+02  2.254439297E+02  3.300000131E-01  0.00000E+00  9.000E+00
</event>
<event>
      5  10001  2.02673E+08  3.19060E+01 -1.00000E+00  1.51171E-01
      -3    -1     0     0     0   511  0.000000000E+00  0.000000000E+00  1.749445381E+01  1.749445381E+01  0.000000000E+00  0.00000E+00  9.000E+00
      21    -1     0     0   512   515  0.000000000E+00  0.000000000E+00 -5.328673454E+01  5.328673454E+01  0.000000000E+00  0.00000E+00  9.000E+00
      21     1     1     2   513   515 -7.337168385E-01 -1.780251374E+00  1.006877256E+00  2.172886827E+00  5.161913656E-08  0.00000E+00  9.000E+00
      21     1     1     2   512   511 -2.024115773E+01  2.438873396E+00 -4.225796715E+01  4.691895520E+01  6.743495762E-07  0.00000E+00  9.000E+00
      -3     1     1     2     0   513  2.097487457E+01 -6.586220218E-01  5.458809168E+00  2.168934632E+01  5.000000000E-01  0.00000E+00  9.000E+00
</event>
<event>
      5  10001  2.02673E+08  5.18243E+00 -1.00000E+00  2.35742E-01
      -2    -1     0     0     0   513  0.000000000E+00  0.000000000E+00  1.515154510E+02  1.515154510E+02  0.000000000E+00  0.00000E+00  9.000E+00
      21    -1     0     0   511   514  0.000000000E+00  0.000000000E+00 -1.650561890E+01  1.650561890E+01  0.000000000E+00  0.00000E+00  9.000E+00
      -2     1     1     2     0   514  2.188543809E+01  1.389570971E+00  1.399194371E+02  1.416278966E+02  3.300000131E-01  0.00000E+00  9.000E+00
      21     1     1     2   512   513 -2.133555000E+01  2.728541967E+00 -5.488119550E+00  2.219842542E+01  8.429369702E-07  0.00000E+00  9.000E+00
      21     1     1     2   511   512 -5.498880943E-01 -4.118112938E+00  5.785145655E-01  4.194747929E+00  5.625064995E-08  0.00000E+00  9.000E+00
</event>
<event>
      5  10001  2.02673E+08  7.95108E+00 -1.00000E+00  2.07953E-01
      21    -1     0     0   515   512  0.000000000E+00  0.000000000E+00  3.038210459E+02  3.038210459E+02  0.000000000E+00  0.00000E+00  9.000E+00
       3    -1     0     0   511     0  0.000000000E+00  0.000000000E+00 -7.945558321E+01  7.945558321E+01  0.000000000E+00  0.00000E+00  9.000E+00
      21     1     1     2   515   516 -6.571337958E+00 -2.522025874E+01  1.087190552E+01  2.823902022E+01  5.591411304E-07  0.00000E+00  9.000E+00
      21     1     1     2   511   512 -1.148571457E+00  2.331700376E+01  2.835601615E+02  2.845195372E+02  5.394796609E-06  0.00000E+00  9.000E+00
       3     1     1     2   516     0  7.719909416E+00  1.903254979E+00 -7.006660435E+01  7.051807163E+01  5.000000000E-01  0.00000E+00  9.000E+00
</event>
<event>
      5  10001  2.02673E+08  4.02695E+01 -1.00000E+00  1.44628E-01
      21    -1     0     0   513   511  0.000000000E+00  0.000000000E+00  2.579721289E+00  2.579721289E+00  0.000000000E+00  0.00000E+00  9.000E+00
       2    -1     0     0   512     0  0.000000000E+00  0.000000000E+00 -6.279653765E+02  6.279653765E+02  0.000000000E+00  0.00000E+00  9.000E+00
      -1     1     1     2     0   511 -4.428425964E+00  2.517492308E+01 -1.068601018E+02  1.098752837E+02  3.300000131E-01  0.00000E+00  9.000E+00
       2     1     1     2   513     0  2.133740327E+01 -1.601184838E+01 -2.393208778E+02  2.408033544E+02  3.300000131E-01  0.00000E+00  9.000E+00
       1     1     1     2   512     0 -1.690897730E+01 -9.163074700E+00 -2.792046757E+02  2.798664597E+02  3.300000131E-01  0.00000E+00  9.000E+00
</event>
<event>
      5  10001  2.02673E+08  1.01060E+01 -1.00000E+00  1.95171E-01
      21    -1     0     0   514   513  0.000000000E+00  0.000000000E+00  8.581944050E+01  8.581944050E+01  0.000000000E+00  0.00000E+00  9.000E+00
      21    -1     0     0   511   515  0.000000000E+00  0.000000000E+00 -1.373088972E+02  1.373088972E+02  0.000000000E+00  0.00000E+00  9.000E+00
      21     1     1     2   514   515  2.357797294E+00 -2.463488519E+01  1.735825899E+01  3.022823071E+01  8.596304120E-07  0.00000E+00  9.000E+00
      21     1     1     2   511   512 -7.701052073E+00  1.605695656E+01 -1.298504653E+02  1.310659200E+02  1.907348633E-06  0.00000E+00  9.000E+00
      21     1     1     2   512   513  5.343254778E+00  8.577928631E+00  6.100274955E+01  6.183418701E+01  0.000000000E+00  0.00000E+00  9.000E+00
</event>
<event>
      5  10001  2.02673E+08  2.14381E+01 -1.00000E+00  1.63878E-01
      21    -1     0     0   516   511  0.000000000E+00  0.000000000E+00  1.775007091E+00  1.775007091E+00  0.000000000E+00  0.00000E+00  9.000E+00
      21    -1     0     0   517   514  0.000000000E+00  0.000000000E+00 -9.551275801E+02  9.551275801E+02  0.000000000E+00  0.00000E+00  9.000E+00
      21     1     1     2   516   513  1.666612671E+01 -1.788144317E+01 -2.885766299E+02  2.896100432E+02  3.814697266E-06  0.00000E+00  9.000E+00
      21     1     1     2   517   511 -2.612819008E+01 -1.355542332E+00 -1.653872490E+02  1.674439069E+02  2.697398305E-06  0.00000E+00  9.000E+00
      21     1     1     2   513   514  9.462063373E+00  1.923698550E+01 -4.993886941E+02  4.998486371E+02  0.000000000E+00  0.00000E+00  9.000E+00
</event>
<event>
      5  10001  2.02673E+08  3.60414E+00 -1.00000E+00  2.74493E-01
      -3    -1     0     0     0   512  0.000000000E+00  0.000000000E+00  1.486127336E+02  1.486127336E+02  0.000000000E+00  0.00000E+00  9.000E+00
      21    -1     0     0   511   514  0.000000000E+00  0.000000000E+00 -4.519408203E+00  4.519408203E+00  0.000000000E+00  0.00000E+00  9.000E+00
      -3     1     1     2     0   515 -4.012525912E+00  1.777163183E+01  6.635536709E+01  6.881290580E+01  5.000000000E-01  0.00000E+00  9.000E+00
      21     1     1     2   511   512  6.894478649E+00 -2.281069342E+01  4.356308144E+01  4.965484503E+01  9.536743164E-07  0.00000E+00  9.000E+00
      21     1     1     2   515   514 -2.881952737E+00  5.039061590E+00  3.417487682E+01  3.466439094E+01  4.768371582E-07  0.00000E+00  9.000E+00
</event>
<event>
      5  10001  2.02673E+08  1.38212E+01 -1.00000E+00  1.80750E-01
      21    -1     0     0   513   511  0.000000000E+00  0.000000000E+00  2.037383131E+01  2.037383131E+01  0.000000000E+00  0.00000E+00  9.000E+00
       1    -1     0     0   512     0  0.000000000E+00  0.000000000E+00 -1.407828114E+03  1.407828114E+03  0.000000000E+00  0.00000E+00  9.000E+00
      21     1     1     2   512   516 -1.970997983E+01 -3.674798729E+01 -6.321386367E+00  4.217650768E+01  3.862822472E-07  0.00000E+00  9.000E+00
       1     1     1     2   513     0  1.450472067E+01  3.010271581E+01 -1.375435555E+03  1.375841428E+03  3.300000131E-01  0.00000E+00  9.000E+00
      21     1     1     2   516   511  5.205259166E+00  6.645271473E+00 -5.697341763E+00  1.018400997E+01  3.674277069E-07  0.00000E+00  9.000E+00
</event>
<event>
      5  10001  2.02673E+08  2.91073E+01 -1.00000E+00  1.53921E-01
      21    -1     0     0   515   511  0.000000000E+00  0.000000000E+00  6.024960897E+01  6.024960897E+01  0.000000000E+00  0.00000E+00  9.000E+00
       3    -1     0     0   511     0  0.000000000E+00  0.000000000E+00 -1.696778673E+02  1.696778673E+02  0.000000000E+00  0.00000E+00  9.000E+00
      21     1     1     2   512   514  3.937714063E+01  2.241594574E+00  4.277202390E+01  5.818101046E+01  1.846782373E-06  0.00000E+00  9.000E+00
       3     1     1     2   514     0 -2.979178997E+01  1.532138524E+01 -1.474140137E+02  1.511735328E+02  5.000000000E-01  0.00000E+00  9.000E+00
      21     1     1     2   515   512 -9.585350665E+00 -1.756297981E+01 -4.786268617E+00  2.057293305E+01  4.298152060E-07  0.00000E+00  9.000E+00
</event>
<event>
      5  10001  2.02673E+08  3.04937E+01 -1.00000E+00  1.52514E-01
       2    -1     0     0   514     0  0.000000000E+00  0.000000000E+00  2.131123408E+02  2.131123408E+02  0.000000000E+00  0.00000E+00  9.000E+00
      21    -1     0     0   513   515  0.000000000E+00  0.000000000E+00 -3.080763346E+00  3.080763346E+00  0.000000000E+00  0.00000E+00  9.000E+00
      21     1     1     2   514   515  5.432790235E+00  1.499002159E+01  6.510892469E+01  6.703273850E+01  1.348699152E-06  0.00000E+00  9.000E+00
       2     1     1     2   511     0 -1.008469339E+01 -6.114628055E+00  1.332718318E+02  1.337930483E+02  3.300000131E-01  0.00000E+00  9.000E+00
      21     1     1     2   513   511  4.651903157E+00 -8.875393532E+00  1.165082091E+01  1.536731730E+01  3.769728732E-07  0.00000E+00  9.000E+00
</event>
<event>
      5  10001  2.02673E+08  9.05274E+00 -1.00000E+00  2.00828E-01
      21    -1     0     0   512   514  0.000000000E+00  0.000000000E+00  7.702871179E+01  7.702871179E+01  0.000000000E+00  0.00000E+00  9.000E+00
      21    -1     0     0   513   516  0.000000000E+00  0.000000000E+00 -5.815552957E+01  5.815552957E+01  0.000000000E+00  0.00000E+00  9.000E+00
      21     1     1     2   512   516  2.187694186E+01 -1.225243836E+01 -4.811932194E+01  5.426040890E+01  0.000000000E+00  0.00000E+00  9.000E+00
      21     1     1     2   513   511 -1.286113958E+01  1.143545618E+01  4.512768864E+00  1.779167368E+01  3.318646170E-07  0.00000E+00  9.000E+00
      21     1     1     2   511   514 -9.015802273E+00  8.169821854E-01  6.247973529E+01  6.313215878E+01  9.536743164E-07  0.00000E+00  9.000E+00
</event>
<event>
      5  10001  2.02673E+08  7.98731E+00 -1.00000E+00  2.07695E-01
      21    -1     0     0   513   514  0.000000000E+00  0.000000000E+00  8.627372164E+01  8.627372164E+01  0.000000000E+00  0.00000E+00  9.000E+00
      21    -1     0     0   511   512  0.000000000E+00  0.000000000E+00 -1.347994776E+01  1.347994776E+01  0.000000000E+00  0.00000E+00  9.000E+00
      -1     1     1     2     0   512 -2.177464588E+01  5.145304200E+00  2.032154375E+01  3.022719634E+01  3.300000131E-01  0.00000E+00  9.000E+00
      21     1     1     2   511   514  2.285474369E+01 -1.305857266E+01  1.319558329E+01  2.944467774E+01  8.085167388E-07  0.00000E+00  9.000E+00
       1     1     1     2   513     0 -1.080097805E+00  7.913268461E+00  3.927664684E+01  4.008179532E+01  3.300000131E-01  0.00000E+00  9.000E+00
</event>
<event>
      5  10001  2.02673E+08  1.06048E+01 -1.00000E+00  1.92798E-01
      21    -1     0     0   515   514  0.000000000E+00  0.000000000E+00  2.138217285E+01  2.138217285E+01  0.000000000E+00  0.00000E+00  9.000E+00
      21    -1     0     0   516   515  0.000000000E+00  0.000000000E+00 -1.148622268E+02  1.148622268E+02  0.000000000E+00  0.00000E+00  9.000E+00
      21     1     1     2   511   514  4.217201358E+00 -1.964895303E+01  1.405254028E+01  2.452223544E+01  1.685873940E-07  0.00000E+00  9.000E+00
      21     1     1     2   512   511 -7.930351489E-01  1.101493185E+01 -9.721264784E+01  9.783790947E+01  0.000000000E+00  0.00000E+00  9.000E+00
      21     1     1     2   516   512 -3.424166209E+00  8.634021180E+00 -1.031994635E+01  1.388425470E+01  2.064765462E-07  0.00000E+00  9.000E+00
</event>
<event>
      5  10001  2.02673E+08  1.10863E+01 -1.00000E+00  1.90663E-01
      21    -1     0     0   513   512  0.000000000E+00  0.000000000E+00  3.329093019E+01  3.329093019E+01  0.000000000E+00  0.00000E+00  9.000E+00
      21    -1     0     0   516   513  0.000000000E+00  0.000000000E+00 -2.797606893E+01  2.797606893E+01  0.000000000E+00  0.00000E+00  9.000E+00
      21     1     1     2   516   517 -1.180969050E+01 -2.383391985E+01 -1.093319716E+01  2.875863915E+01  3.153981341E-07  0.00000E+00  9.000E+00
      21     1     1     2   511   512  8.646785949E+00  7.323941053E+00  7.059268727E+00  1.335066645E+01  1.460009660E-07  0.00000E+00  9.000E+00
      21     1     1     2   517   511  3.162904552E+00  1.650997880E+01  9.188789694E+00  1.915769353E+01  3.371747881E-07  0.00000E+00  9.000E+00
</event>
<event>
      5  10001  2.02673E+08  1.06020E+01 -1.00000E+00  1.92811E-01
      21    -1     0     0   511   513  0.000000000E+00  0.000000000E+00  1.340661683E+01  1.340661683E+01  0.000000000E+00  0.00000E+00  9.000E+00
       2    -1     0     0   512     0  0.000000000E+00  0.000000000E+00 -9.781460243E+02  9.781460243E+02  0.000000000E+00  0.00000E+00  9.000E+00
      21     1     1     2   511   514  2.359485017E+01 -1.701363926E+01 -6.118560256E+01  6.774849693E+01  2.861022949E-06  0.00000E+00  9.000E+00
       2     1     1     2   514     0 -1.894467050E+01  7.485877063E+00 -9.107581581E+02  9.109859880E+02  3.300000131E-01  0.00000E+00  9.000E+00
      21     1     1     2   512   513 -4.650179676E+00  9.527762199E+00  7.204353181E+00  1.281815620E+01  5.527507362E-07  0.00000E+00  9.000E+00
</event>
<event>
      5  10001  2.02673E+08  1.59234E+01 -1.00000E+00  1.74927E-01
      21    -1     0     0   515   514  0.000000000E+00  0.000000000E+00  2.164475718E+01  2.164475718E+01  0.000000000E+00  0.00000E+00  9.000E+00
      21    -1     0     0   512   513  0.000000000E+00  0.000000000E+00 -2.545067537E+01  2.545067537E+01  0.000000000E+00  0.00000E+00  9.000E+00
      21     1     1     2   515   513 -1.764819216E+01  6.114442672E+00 -9.728628251E+00  2.105923321E+01  3.153981341E-07  0.00000E+00  9.000E+00
      21     1     1     2   512   511  1.312353992E+01 -4.568196933E+00 -4.469287621E+00  1.459692622E+01  2.064765462E-07  0.00000E+00  9.000E+00
      21     1     1     2   511   514  4.524652238E+00 -1.546245738E+00  1.039199768E+01  1.143927312E+01  2.064765462E-07  0.00000E+00  9.000E+00
</event>
<event>
      5  10001  2.02673E+08  3.28824E+01 -1.00000E+00  1.50289E-01
       3    -1     0     0   511     0  0.000000000E+00  0.000000000E+00  1.825846678E+02  1.825846678E+02  0.000000000E+00  0.00000E+00  9.000E+00
       3    -1     0     0   514     0  0.000000000E+00  0.000000000E+00 -3.714529665E+01  3.714529665E+01  0.000000000E+00  0.00000E+00  9.000E+00
       3     1     1     2   511     0  1.743163466E+01  2.543019385E+01 -2.907199517E+01  4.237909331E+01  5.000000000E-01  0.00000E+00  9.000E+00
      21     1     1     2   514   512 -2.035481439E+00 -8.475305036E-01  6.788370488E+00  7.137469196E+00  1.685873940E-07  0.00000E+00  9.000E+00
       3     1     1     2   512     0 -1.539615322E+01 -2.458266335E+01  1.677229958E+02  1.702134019E+02  5.000000000E-01  0.00000E+00  9.000E+00
</event>
<event>
      5  10001  2.02673E+08  9.27041E+00 -1.00000E+00  1.99578E-01
      21    -1     0     0   513   514  0.000000000E+00  0.000000000E+00  1.797306250E+02  1.797306250E+02  0.000000000E+00  0.00000E+00  9.000E+00
      21    -1     0     0   516   515  0.000000000E+00  0.000000000E+00 -5.456616788E+01  5.456616788E+01  0.000000000E+00  0.00000E+00  9.000E+00
      21     1     1     2   513   515 -4.189659644E+01  2.654767428E+01 -3.877363122E+01  6.295632042E+01  8.259061849E-07  0.00000E+00  9.000E+00
      21     1     1     2   511   514  7.046298654E+00 -6.561959878E+00  3.340971896E+01  3.476951198E+01  4.768371582E-07  0.00000E+00  9.000E+00
      21     1     1     2   516   511  3.485029778E+01 -1.998571440E+01  1.305283694E+02  1.365709605E+02  1.907348633E-06  0.00000E+00  9.000E+00
</event>
<event>
      5  10001  2.02673E+08  1.73896E+01 -1.00000E+00  1.71497E-01
      -3    -1     0     0     0   514  0.000000000E+00  0.000000000E+00  8.484539761E+02  8.484539761E+02  0.000000000E+00  0.00000E+00  9.000E+00
      21    -1     0     0   516   512  0.000000000E+00  0.000000000E+00 -2.663515427E+01  2.663515427E+01  0.000000000E+00  0.00000E+00  9.000E+00
      21     1     1     2   511   514 -1.657230678E+01  2.599432400E+01  2.788695951E+02  2.805683469E+02  3.814697266E-06  0.00000E+00  9.000E+00
      21     1     1     2   516   511  3.894855901E+00 -3.789717108E+01 -1.150312985E+01  3.979557105E+01  1.079486029E-06  0.00000E+00  9.000E+00
      -3     1     1     2     0   512  1.267745088E+01  1.190284709E+01  5.544523566E+02  5.547252124E+02  5.000000000E-01  0.00000E+00  9.000E+00
</event>
<event>
      5  10001  2.02673E+08  3.19567E+01 -1.00000E+00  1.51124E-01
      21    -1     0     0   513   512  0.000000000E+00  0.000000000E+00  8.154305844E+00  8.154305844E+00  0.000000000E+00  0.00000E+00  9.000E+00
      21    -1     0     0   514   515  0.000000000E+00  0.000000000E+00 -7.637301945E+01  7.637301945E+01  0.000000000E+00  0.00000E+00  9.000E+00
      21     1     1     2   513   515 -5.564529274E+00 -1.148337837E+01 -3.358054474E+01  3.592332042E+01  4.768371582E-07  0.00000E+00  9.000E+00
      21     1     1     2   511   512  2.386333651E+00  1.434043890E+01 -3.952402061E+01  4.211283630E+01  6.743495762E-07  0.00000E+00  9.000E+00
      21     1     1     2   514   511  3.178195623E+00 -2.857060531E+00  4.885851741E+00  6.491168580E+00  2.920019320E-07  0.00000E+00  9.000E+00
</event>
<event>
      5  10001  2.02673E+08  5.91544E+00 -1.00000E+00  2.26354E-01
      -3    -1     0     0     0   512  0.000000000E+00  0.000000000E+00  3.445663379E+01  3.445663379E+01  0.000000000E+00  0.00000E+00  9.000E+00
       4    -1     0     0   515     0  0.000000000E+00  0.000000000E+00 -3.888176392E+01  3.888176392E+01  0.000000000E+00  0.00000E+00  9.000E+00
      -3     1     1     2     0   513  1.495354103E+01 -1.638860863E+01  2.412390355E+01  3.277815743E+01  5.000000000E-01  0.00000E+00  9.000E+00
       4     1     1     2   513     0 -9.789144767E+00  1.926700364E+01 -2.666330598E+01  3.435442723E+01  1.500000000E+00  0.00000E+00  9.000E+00
      21     1     1     2   515   512 -5.164396261E+00 -2.878395013E+00 -1.885727692E+00  6.205813042E+00  9.884312124E-08  0.00000E+00  9.000E+00
</event>
<event>
      5  10001  2.02673E+08  4.73923E+00 -1.00000E+00  2.47149E-01
      21    -1     0     0   511   513  0.000000000E+00  0.000000000E+00  4.642911422E+01  4.642911422E+01  0.000000000E+00  0.00000E+00  9.000E+00
      21    -1     0     0   514   512  0.000000000E+00  0.000000000E+00 -2.819820213E+01  2.819820213E+01  0.000000000E+00  0.00000E+00  9.000E+00
      21     1     1     2   511   512 -5.064848548E+00 -2.608960225E+01 -1.607589298E+01  3.106049535E+01  3.371747881E-07  0.00000E+00  9.000E+00
      21     1     1     2   514   516  6.689889177E-01  9.571581498E+00  1.471305217E+01  1.756521058E+01  2.920019320E-07  0.00000E+00  9.000E+00
      21     1     1     2   516   513  4.395859631E+00  1.651802075E+01  1.959375290E+01  2.600161041E+01  3.371747881E-07  0.00000E+00  9.000E+00
</event>
<event>
      5  10001  2.02673E+08  9.49468E+00 -1.00000E+00  1.98337E-01
      -1    -1     0     0     0   513  0.000000000E+00  0.000000000E+00  1.221051110E+02  1.221051110E+02  0.000000000E+00  0.00000E+00  9.000E+00
      21    -1     0     0   513   511  0.000000000E+00  0.000000000E+00 -8.623231278E+00  8.623231278E+00  0.000000000E+00  0.00000E+00  9.000E+00
      -1     1     1     2     0   515  9.642991113E+00 -2.353314210E+01  8.954853040E+01  9.309051644E+01  3.300000131E-01  0.00000E+00  9.000E+00
      21     1     1     2   515   512 -1.235579819E+01  1.744082993E+01  2.204744443E+01  3.070729724E+01  5.331201500E-07  0.00000E+00  9.000E+00
      21     1     1     2   512   511  2.712807081E+00  6.092312170E+00  1.885904930E+00  6.930528641E+00  1.010645923E-07  0.00000E+00  9.000E+00
</event>
<event>
      5  10001  2.02673E+08  4.56247E+01 -1.00000E+00  1.41353E-01
      21    -1     0     0   514   511  0.000000000E+00  0.000000000E+00  6.427783103E+01  6.427783103E+01  0.000000000E+00  0.00000E+00  9.000E+00
      21    -1     0     0   513   516  0.000000000E+00  0.000000000E+00 -3.261870045E+01  3.261870045E+01  0.000000000E+00  0.00000E+00  9.000E+00
      21     1     1     2   514   516  1.130640759E+01  1.167331720E+01 -1.556539148E+01  2.250294645E+01  4.768371582E-07  0.00000E+00  9.000E+00
      21     1     1     2   513   515  6.959484028E-01  7.108442722E+00  5.124865759E+01  5.174397749E+01  6.743495762E-07  0.00000E+00  9.000E+00
      21     1     1     2   515   511 -1.200235599E+01 -1.878175992E+01 -4.024135532E+00  2.264960754E+01  4.460403188E-07  0.00000E+00  9.000E+00
</event>
<event>
      5  10001  2.02673E+08  2.54091E+01 -1.00000E+00  1.58187E-01
      21    -1     0     0   512   511  0.000000000E+00  0.000000000E+00  2.947986143E+01  2.947986143E+01  0.000000000E+00  0.00000E+00  9.000E+00
      -5    -1     0     0     0   512  0.000000000E+00  0.000000000E+00 -1.465021886E+01  1.465021886E+01  0.000000000E+00  0.00000E+00  9.000E+00
      -5     1     1     2     0   513  2.919256273E+00  6.054848788E+00 -4.055561884E+00  9.201675666E+00  4.800000191E+00  0.00000E+00  9.000E+00
      21     1     1     2   514   511 -1.449348489E+01 -4.061902966E+00  3.293093424E+00  1.540794030E+01  2.346637211E-07  0.00000E+00  9.000E+00
      21     1     1     2   513   514  1.157422861E+01 -1.992945822E+00  1.559211104E+01  1.952046433E+01  3.371747881E-07  0.00000E+00  9.000E+00
</event>
<event>
      5  10001  2.02673E+08  2.36231E+01 -1.00000E+00  1.60577E-01
       4    -1     0     0   513     0  0.000000000E+00  0.000000000E+00  1.110038893E+01  1.110038893E+01  0.000000000E+00  0.00000E+00  9.000E+00
      21    -1     0     0   515   512  0.000000000E+00  0.000000000E+00 -5.623434620E+01  5.623434620E+01  0.000000000E+00  0.00000E+00  9.000E+00
      21     1     1     2   511   512  2.464442491E+00 -1.397893605E+01 -3.161398314E+01  3.465440895E+01  4.768371582E-07  0.00000E+00  9.000E+00
       4     1     1     2   515     0 -1.405454364E+01  6.553925445E+00 -4.474636638E+00  1.620976585E+01  1.500000000E+00  0.00000E+00  9.000E+00
      21     1     1     2   513   511  1.159010115E+01  7.425010604E+00 -9.045337492E+00  1.647056033E+01  3.371747881E-07  0.00000E+00  9.000E+00
</event>
<event>
      5  10001  2.02673E+08  2.12107E+01 -1.00000E+00  1.64250E-01
      21    -1     0     0   514   512  0.000000000E+00  0.000000000E+00  2.381429942E+02  2.381429942E+02  0.000000000E+00  0.00000E+00  9.000E+00
      21    -1     0     0   516   511  0.000000000E+00  0.000000000E+00 -1.992303533E+01  1.992303533E+01  0.000000000E+00  0.00000E+00  9.000E+00
      21     1     1     2   514   511  2.920948772E-01  2.856161766E+01 -7.799830228E+00  2.960892896E+01  8.840797528E-07  0.00000E+00  9.000E+00
      21     1     1     2   515   512 -8.363836028E+00 -9.971570513E+00  8.901229944E+01  8.995874289E+01  9.536743164E-07  0.00000E+00  9.000E+00
      21     1     1     2   516   515  8.071741151E+00 -1.859004714E+01  1.370074897E+02  1.384983577E+02  1.907348633E-06  0.00000E+00  9.000E+00
</event>
<event>
      5  10001  2.02673E+08  5.99115E+00 -1.00000E+00  2.25493E-01
       1    -1     0     0   511     0  0.000000000E+00  0.000000000E+00  2.779100285E+02  2.779100285E+02  0.000000000E+00  0.00000E+00  9.000E+00
      21    -1     0     0   515   511  0.000000000E+00  0.000000000E+00 -2.281228594E+01  2.281228594E+01  0.000000000E+00  0.00000E+00  9.000E+00
      21     1     1     2   512   513  7.758544594E+00 -2.184539535E+01 -1.214774509E+01  2.617219943E+01  8.596304120E-07  0.00000E+00  9.000E+00
       1     1     1     2   513     0 -3.954783390E+00  2.230628413E+01  2.692666350E+02  2.702181345E+02  3.300000131E-01  0.00000E+00  9.000E+00
      21     1     1     2   515   512 -3.803761205E+00 -4.608887820E-01 -2.021147363E+00  4.331980429E+00  1.519626234E-07  0.00000E+00  9.000E+00
</event>
<event>
      5  10001  2.02673E+08  7.03993E+00 -1.00000E+00  2.15134E-01
      21    -1     0     0   514   511  0.000000000E+00  0.000000000E+00  2.043534576E+00  2.043534576E+00  0.000000000E+00  0.00000E+00  9.000E+00
      21    -1     0     0   515   512  0.000000000E+00  0.000000000E+00 -4.630332140E+02  4.630332140E+02  0.000000000E+00  0.00000E+00  9.000E+00
      21     1     1     2   514   512 -1.976520997E+01 -1.375253420E+01 -2.808811828E+02  2.819113949E+02  3.814697266E-06  0.00000E+00  9.000E+00
      21     1     1     2   515   513  1.455088884E+01  9.022692471E+00 -1.699249574E+02  1.707853287E+02  0.000000000E+00  0.00000E+00  9.000E+00
      21     1     1     2   513   511  5.214321131E+00  4.729841725E+00 -1.018353918E+01  1.238002495E+01  6.419616708E-07  0.00000E+00  9.000E+00
</event>
<event>
      5  10001  2.02673E+08  5.09105E+00 -1.00000E+00  2.37068E-01
      21    -1     0     0   515   512  0.000000000E+00  0.000000000E+00  1.612529879E+00  1.612529879E+00  0.000000000E+00  0.00000E+00  9.000E+00
       2    -1     0     0   511     0  0.000000000E+00  0.000000000E+00 -4.348838557E+02  4.348838557E+02  0.000000000E+00  0.00000E+00  9.000E+00
      21     1     1     2   515   513  1.683791343E+01 -1.034665901E+01 -2.274116071E+02  2.282687182E+02  2.697398305E-06  0.00000E+00  9.000E+00
       2     1     1     2   513     0 -1.806117163E+01  1.528833493E+01 -1.921760733E+02  1.936277127E+02  3.300000131E-01  0.00000E+00  9.000E+00
      21     1     1     2   511   512  1.223258204E+00 -4.941675920E+00 -1.368364553E+01  1.459995468E+01  1.685873940E-07  0.00000E+00  9.000E+00
</event>
<event>
      5  10001  2.02673E+08  6.97042E+00 -1.00000E+00  2.15742E-01
      21    -1     0     0   511   513  0.000000000E+00  0.000000000E+00  2.665671571E+01  2.665671571E+01  0.000000000E+00  0.00000E+00  9.000E+00
      -2    -1     0     0     0   514  0.000000000E+00  0.000000000E+00 -4.324245907E+01  4.324245907E+01  0.000000000E+00  0.00000E+00  9.000E+00
      -2     1     1     2     0   512 -9.621869142E+00  2.501744073E+01  1.008343834E+01  2.863978588E+01  3.300000131E-01  0.00000E+00  9.000E+00
      21     1     1     2   511   514  1.270846809E+01 -1.876786555E+01 -2.562595182E+01  3.421150896E+01  9.536743164E-07  0.00000E+00  9.000E+00
      21     1     1     2   512   513 -3.086598951E+00 -6.249575187E+00 -1.043229878E+00  7.047879942E+00  5.161913656E-08  0.00000E+00  9.000E+00
</event>
<event>
      5  10001  2.02673E+08  1.10065E+01 -1.00000E+00  1.91007E-01
      -1    -1     0     0     0   513  0.000000000E+00  0.000000000E+00  1.046378084E+01  1.046378084E+01  0.000000000E+00  0.00000E+00  9.000E+00
      21    -1     0     0   513   515  0.000000000E+00  0.000000000E+00 -9.524831772E+01  9.524831772E+01  0.000000000E+00  0.00000E+00  9.000E+00
      -1     1     1     2     0   511  7.799150938E+00 -2.119453385E+01 -5.812149288E+00  2.332219972E+01  3.300000131E-01  0.00000E+00  9.000E+00
      21     1     1     2   514   515 -5.440069074E+00  1.640512256E+01 -6.834888239E+01  7.050029873E+01  9.536743164E-07  0.00000E+00  9.000E+00
      21     1     1     2   511   514 -2.359081864E+00  4.789411294E+00 -1.062350520E+01  1.188960010E+01  1.192092896E-07  0.00000E+00  9.000E+00
</event>
<event>
      5  10001  2.02673E+08  6.36987E+01 -1.00000E+00  1.33303E-01
      21    -1     0     0   512   513  0.000000000E+00  0.000000000E+00  1.955180508E+01  1.955180508E+01  0.000000000E+00  0.00000E+00  9.000E+00
      21    -1     0     0   511   516  0.000000000E+00  0.000000000E+00 -1.100287045E+02  1.100287045E+02  0.000000000E+00  0.00000E+00  9.000E+00
      21     1     1     2   512   516 -5.368182342E+00 -9.912988775E+00 -5.221359438E+01  5.341670306E+01  0.000000000E+00  0.00000E+00  9.000E+00
      21     1     1     2   511   515  3.734950538E-01  3.514828545E+01 -3.604003331E+01  5.034307767E+01  0.000000000E+00  0.00000E+00  9.000E+00
      21     1     1     2   515   513  4.994687288E+00 -2.523529667E+01 -2.223271700E+00  2.582072881E+01  5.380949403E-07  0.00000E+00  9.000E+00
</event>
<event>
      5  10001  2.02673E+08  1.90181E+01 -1.00000E+00  1.68151E-01
       1    -1     0     0   511     0  0.000000000E+00  0.000000000E+00  5.689693422E+02  5.689693422E+02  0.000000000E+00  0.00000E+00  9.000E+00
      21    -1     0     0   512   515  0.000000000E+00  0.000000000E+00 -1.023356143E+02  1.023356143E+02  0.000000000E+00  0.00000E+00  9.000E+00
      21     1     1     2   511   515 -4.131889482E+00  1.559954388E+01  1.681041955E+01  2.330254247E+01  2.172096629E-06  0.00000E+00  9.000E+00
       1     1     1     2   514     0  2.310893281E+01 -1.435054951E+01  5.476595880E+02  5.483348377E+02  3.300000131E-01  0.00000E+00  9.000E+00
      21     1     1     2   512   514 -1.897704333E+01 -1.248994376E+00 -9.783627961E+01  9.966757632E+01  1.348699152E-06  0.00000E+00  9.000E+00
</event>
<event>
      5  10001  2.02673E+08  1.47428E+01 -1.00000E+00  1.78046E-01
      21    -1     0     0   512   513  0.000000000E+00  0.000000000E+00  1.849281096E+00  1.849281096E+00  0.000000000E+00  0.00000E+00  9.000E+00
       2    -1     0     0   514     0  0.000000000E+00  0.000000000E+00 -6.264854446E+02  6.264854446E+02  0.000000000E+00  0.00000E+00  9.000E+00
      21     1     1     2   514   513  2.880847590E+01  4.743437297E+00 -1.728911990E+02  1.753390862E+02  1.907348633E-06  0.00000E+00  9.000E+00
       2     1     1     2   511     0 -1.308672824E+01 -5.083062239E+00 -3.212168828E+02  3.215237078E+02  3.300000131E-01  0.00000E+00  9.000E+00
      21     1     1     2   512   511 -1.572174766E+01  3.396249421E-01 -1.305280816E+02  1.314719316E+02  1.907348633E-06  0.00000E+00  9.000E+00
</event>
<event>
      5  10001  2.02673E+08  1.60804E+01 -1.00000E+00  1.74538E-01
      21    -1     0     0   511   514  0.000000000E+00  0.000000000E+00  8.861719053E+01  8.861719053E+01  0.000000000E+00  0.00000E+00  9.000E+00
       1    -1     0     0   515     0  0.000000000E+00  0.000000000E+00 -7.096788916E+01  7.096788916E+01  0.000000000E+00  0.00000E+00  9.000E+00
      -4     1     1     2     0   514  3.175728034E+01  2.264891282E+01  5.738855894E+01  6.940601418E+01  1.500000000E+00  0.00000E+00  9.000E+00
       4     1     1     2   515     0 -2.375893881E+01 -8.705473578E+00  1.744931797E+01  3.077338365E+01  1.500000000E+00  0.00000E+00  9.000E+00
       1     1     1     2   511     0 -7.998341532E+00 -1.394343924E+01 -5.718857554E+01  5.940568186E+01  3.300000131E-01  0.00000E+00  9.000E+00
</event>
<event>
      5  10001  2.02673E+08  5.27819E+00 -1.00000E+00  2.34395E-01
      21    -1     0     0   514   513  0.000000000E+00  0.000000000E+00  2.846796596E+01  2.846796596E+01  0.000000000E+00  0.00000E+00  9.000E+00
       2    -1     0     0   511     0  0.000000000E+00  0.000000000E+00 -4.325997192E+02  4.325997192E+02  0.000000000E+00  0.00000E+00  9.000E+00
      21     1     1     2   511   513 -6.772154175E+00 -1.988182819E+01 -5.138578879E+01  5.551259725E+01  2.236564522E-06  0.00000E+00  9.000E+00
       2     1     1     2   512     0  1.049146774E+01  2.362694097E+01 -3.784412311E+02  3.793233153E+02  3.300000131E-01  0.00000E+00  9.000E+00
      21     1     1     2   514   512 -3.719313561E+00 -3.745112781E+00  2.569526668E+01  2.623177258E+01  8.920806376E-07  0.00000E+00  9.000E+00
</event>
<event>
      5  10001  2.02673E+08  1.31926E+01 -1.00000E+00  1.82752E-01
      21    -1     0     0   515   511  0.000000000E+00  0.000000000E+00  1.858549365E+01  1.858549365E+01  0.000000000E+00  0.00000E+00  9.000E+00
      21    -1     0     0   516   515  0.000000000E+00  0.000000000E+00 -8.404023328E+01  8.404023328E+01  0.000000000E+00  0.00000E+00  9.000E+00
      21     1     1     2   512   511 -2.018825677E+01 -1.246927010E+00  8.501549321E+00  2.194075840E+01  8.259061849E-07  0.00000E+00  9.000E+00
      21     1     1     2   516   513  1.148874016E+01 -8.300403843E-01 -6.993723003E+01  7.087944880E+01  1.348699152E-06  0.00000E+00  9.000E+00
      21     1     1     2   513   512  8.699516603E+00  2.076967394E+00 -4.019058928E+00  9.805519739E+00  1.032382731E-07  0.00000E+00  9.000E+00
</event>
<event>
      5  10001  2.02673E+08  1.18334E+01 -1.00000E+00  1.87615E-01
      -5    -1     0     0     0   512  0.000000000E+00  0.000000000E+00  1.717580891E+02  1.717580891E+02  0.000000000E+00  0.00000E+00  9.000E+00
      21    -1     0     0   513   514  0.000000000E+00  0.000000000E+00 -1.166237456E+02  1.166237456E+02  0.000000000E+00  0.00000E+00  9.000E+00
      -5     1     1     2     0   514 -2.298718691E+00  3.282050018E+01  1.672509630E+02  1.705238809E+02  4.800000191E+00  0.00000E+00  9.000E+00
      21     1     1     2   511   512 -5.160376742E+00 -2.406792261E+01 -7.010183317E+01  7.429778866E+01  2.132480600E-06  0.00000E+00  9.000E+00
      21     1     1     2   513   511  7.459095433E+00 -8.752577576E+00 -4.201478631E+01  4.356016514E+01  1.168007728E-06  0.00000E+00  9.000E+00
</event>
<event>
      5  10001  2.02673E+08  3.88274E+00 -1.00000E+00  2.66441E-01
      21    -1     0     0   514   512  0.000000000E+00  0.000000000E+00  2.441552779E+00  2.441552779E+00  0.000000000E+00  0.00000E+00  9.000E+00
       2    -1     0     0   513     0  0.000000000E+00  0.000000000E+00 -6.573414542E+02  6.573414542E+02  0.000000000E+00  0.00000E+00  9.000E+00
       1     1     1     2   513     0 -2.446167470E+01 -2.503477632E+01 -4.051224504E+02  4.066318019E+02  3.300000131E-01  0.00000E+00  9.000E+00
       2     1     1     2   514     0  2.184841545E+01  2.790574897E+01 -2.403676507E+02  2.429666654E+02  3.300000131E-01  0.00000E+00  9.000E+00
      -1     1     1     2     0   512  2.613259254E+00 -2.870972650E+00 -9.409800328E+00  1.018453976E+01  3.300000131E-01  0.00000E+00  9.000E+00
</event>
<event>
      5  10001  2.02673E+08  1.59996E+01 -1.00000E+00  1.74738E-01
       2    -1     0     0   511     0  0.000000000E+00  0.000000000E+00  4.584447033E+02  4.584447033E+02  0.000000000E+00  0.00000E+00  9.000E+00
      21    -1     0     0   513   512  0.000000000E+00  0.000000000E+00 -1.064810964E+01  1.064810964E+01  0.000000000E+00  0.00000E+00  9.000E+00
      21     1     1     2   511   512  3.411176868E+01  9.431908792E+00  2.399697150E+01  4.276012520E+01  8.259061849E-07  0.00000E+00  9.000E+00
      21     1     1     2   513   515 -2.726945978E+01  5.030432944E+00  3.313513653E+02  3.325096329E+02  5.394796609E-06  0.00000E+00  9.000E+00
       2     1     1     2   515     0 -6.842308904E+00 -1.446234174E+01  9.244825686E+01  9.382305483E+01  3.300000131E-01  0.00000E+00  9.000E+00
</event>
<event>
      5  10001  2.02673E+08  5.19241E+00 -1.00000E+00  2.35600E-01
       3    -1     0     0   512     0  0.000000000E+00  0.000000000E+00  1.674872984E+01  1.674872984E+01  0.000000000E+00  0.00000E+00  9.000E+00
      21    -1     0     0   511   515  0.000000000E+00  0.000000000E+00 -1.205590772E+02  1.205590772E+02  0.000000000E+00  0.00000E+00  9.000E+00
      21     1     1     2   512   515 -1.214084712E+01 -3.220406227E+01 -4.144902798E+01  5.387507509E+01  6.743495762E-07  0.00000E+00  9.000E+00
       3     1     1     2   514     0  8.554182675E+00  3.595839874E+01 -2.258452147E+01  4.331848440E+01  5.000000000E-01  0.00000E+00  9.000E+00
      21     1     1     2   511   514  3.586664449E+00 -3.754336469E+00 -3.977679791E+01  4.011424755E+01  4.768371582E-07  0.00000E+00  9.000E+00
</event>
<event>
      5  10001  2.02673E+08  3.32646E+01 -1.00000E+00  1.49954E-01
      21    -1     0     0   513   514  0.000000000E+00  0.000000000E+00  1.543357165E+01  1.543357165E+01  0.000000000E+00  0.00000E+00  9.000E+00
      21    -1     0     0   511   516  0.000000000E+00  0.000000000E+00 -5.484602765E+01  5.484602765E+01  0.000000000E+00  0.00000E+00  9.000E+00
      21     1     1     2   513   516 -1.583262880E+01 -1.474886094E+01 -9.902795960E+00  2.379635269E+01  1.685873940E-07  0.00000E+00  9.000E+00
      21     1     1     2   512   514  7.673058020E+00  5.149707731E+00  4.453916710E+00  1.025829826E+01  2.795705652E-07  0.00000E+00  9.000E+00
      21     1     1     2   511   512  8.159570781E+00  9.599153207E+00 -3.396357674E+01  3.622494835E+01  0.000000000E+00  0.00000E+00  9.000E+00
</event>
<event>
      5  10001  2.02673E+08  5.77994E+01 -1.00000E+00  1.35549E-01
      21    -1     0     0   515   512  0.000000000E+00  0.000000000E+00  1.228833411E+01  1.228833411E+01  0.000000000E+00  0.00000E+00  9.000E+00
      21    -1     0     0   511   517  0.000000000E+00  0.000000000E+00 -1.801496417E+02  1.801496417E+02  0.000000000E+00  0.00000E+00  9.000E+00
      21     1     1     2   515   517 -2.446722422E+01 -4.998288306E+00 -1.028209495E+02  1.058100921E+02  2.336015456E-06  0.00000E+00  9.000E+00
      21     1     1     2   511   513  2.135144123E+01 -1.570392066E+01 -5.924757028E+01  6.490586839E+01  9.536743164E-07  0.00000E+00  9.000E+00
      21     1     1     2   513   512  3.115782982E+00  2.070220896E+01 -5.792787897E+00  2.172201535E+01  5.127385418E-07  0.00000E+00  9.000E+00
</event>
<event>
      5  10001  2.02673E+08  3.02275E+00 -1.00000E+00  2.95738E-01
      21    -1     0     0   514   511  0.000000000E+00  0.000000000E+00  3.219676564E+02  3.219676564E+02  0.000000000E+00  0.00000E+00  9.000E+00
      21    -1     0     0   512   514  0.000000000E+00  0.000000000E+00 -6.531057128E+00  6.531057128E+00  0.000000000E+00  0.00000E+00  9.000E+00
      21     1     1     2   512   516 -1.518612500E+01 -3.390720983E+01  6.239011427E+01  7.261434865E+01  6.743495762E-07  0.00000E+00  9.000E+00
      21     1     1     2   515   511  1.581867417E+01  2.897946189E+01  2.226389326E+02  2.250736190E+02  2.697398305E-06  0.00000E+00  9.000E+00
      21     1     1     2   516   515 -6.325491701E-01  4.927747943E+00  3.040755239E+01  3.081074587E+01  4.768371582E-07  0.00000E+00  9.000E+00
</event>
<event>
      5  10001  2.02673E+08  6.83588E+00 -1.00000E+00  2.16948E-01
      21    -1     0     0   513   515  0.000000000E+00  0.000000000E+00  1.223141548E+01  1.223141548E+01  0.000000000E+00  0.00000E+00  9.000E+00
      21    -1     0     0   512   517  0.000000000E+00  0.000000000E+00 -1.764144280E+02  1.764144280E+02  0.000000000E+00  0.00000E+00  9.000E+00
      21     1     1     2   513   517  3.075968424E+01  2.452648809E+00 -1.479323670E+02  1.511163753E+02  1.907348633E-06  0.00000E+00  9.000E+00
       5     1     1     2   512     0 -2.322653414E+01  1.215446727E+00 -1.415995176E+01  2.764947440E+01  4.800000191E+00  0.00000E+00  9.000E+00
      -5     1     1     2     0   515 -7.533150101E+00 -3.668095536E+00 -2.090693708E+00  9.879993792E+00  4.800000191E+00  0.00000E+00  9.000E+00
</event>
<event>
      5  10001  2.02673E+08  1.39901E+01 -1.00000E+00  1.80234E-01
      21    -1     0     0   511   515  0.000000000E+00  0.000000000E+00  5.444647075E+01  5.444647075E+01  0.000000000E+00  0.00000E+00  9.000E+00
      21    -1     0     0   514   511  0.000000000E+00  0.000000000E+00 -1.563656900E+02  1.563656900E+02  0.000000000E+00  0.00000E+00  9.000E+00
      21     1     1     2   512   515 -9.115053654E+00  2.555044628E+01  4.705513408E+01  5.431477839E+01  1.168007728E-06  0.00000E+00  9.000E+00
      21     1     1     2   513   512  9.736915864E+00 -3.453340157E+01 -1.363434167E+02  1.409854271E+02  0.000000000E+00  0.00000E+00  9.000E+00
      21     1     1     2   514   513 -6.218622102E-01  8.982955290E+00 -1.263093659E+01  1.551195531E+01  3.769728732E-07  0.00000E+00  9.000E+00
</event>
<event>
      5  10001  2.02673E+08  9.62373E+00 -1.00000E+00  1.97643E-01
      21    -1     0     0   516   513  0.000000000E+00  0.000000000E+00  3.788373503E+01  3.788373503E+01  0.000000000E+00  0.00000E+00  9.000E+00
      21    -1     0     0   514   517  0.000000000E+00  0.000000000E+00 -1.167759845E+01  1.167759845E+01  0.000000000E+00  0.00000E+00  9.000E+00
      21     1     1     2   516   517  1.315324985E+01  1.189628292E+01  6.629633195E+00  1.893360941E+01  1.685873940E-07  0.00000E+00  9.000E+00
      21     1     1     2   511   513 -1.007954355E+01 -1.016174624E+01  2.207112302E+01  2.630575519E+01  0.000000000E+00  0.00000E+00  9.000E+00
      21     1     1     2   514   511 -3.073706306E+00 -1.734536676E+00 -2.494619636E+00  4.321968888E+00  1.228781231E-07  0.00000E+00  9.000E+00
</event>
<event>
      5  10001  2.02673E+08  1.12489E+01 -1.00000E+00  1.89974E-01
      21    -1     0     0   512   513  0.000000000E+00  0.000000000E+00  5.415268722E+01  5.415268722E+01  0.000000000E+00  0.00000E+00  9.000E+00
      21    -1     0     0   514   512  0.000000000E+00  0.000000000E+00 -3.255377755E+02  3.255377755E+02  0.000000000E+00  0.00000E+00  9.000E+00
      21     1     1     2   514   515 -1.681816694E+01  9.556132575E+00 -3.097613768E+02  3.103647547E+02  0.000000000E+00  0.00000E+00  9.000E+00
      21     1     1     2   515   511  2.794239580E+01 -7.885857059E+00  4.693617342E+01  5.519029444E+01  6.743495762E-07  0.00000E+00  9.000E+00
      21     1     1     2   511   513 -1.112422887E+01 -1.670275516E+00 -8.559884962E+00  1.413541364E+01  1.192092896E-07  0.00000E+00  9.000E+00
</event>
<event>
      5  10001  2.02673E+08  1.39572E+01 -1.00000E+00  1.80334E-01
      21    -1     0     0   516   511  0.000000000E+00  0.000000000E+00  6.670382782E+01  6.670382782E+01  0.000000000E+00  0.00000E+00  9.000E+00
      21    -1     0     0   512   516  0.000000000E+00  0.000000000E+00 -7.765463595E+01  7.765463595E+01  0.000000000E+00  0.00000E+00  9.000E+00
      21     1     1     2   517   511  2.929144231E+01 -6.816700894E+00  5.742737865E+01  6.482561086E+01  9.536743164E-07  0.00000E+00  9.000E+00
      21     1     1     2   513   517 -1.651556242E+01  1.197095022E+00 -9.642855383E+00  1.916198054E+01  1.685873940E-07  0.00000E+00  9.000E+00
      21     1     1     2   512   513 -1.277587990E+01  5.619605872E+00 -5.873533139E+01  6.037087237E+01  6.743495762E-07  0.00000E+00  9.000E+00
</event>
<event>
      5  10001  2.02673E+08  2.62506E+01 -1.00000E+00  1.57142E-01
      -1    -1     0     0     0   511  0.000000000E+00  0.000000000E+00  8.524199768E+01  8.524199768E+01  0.000000000E+00  0.00000E+00  9.000E+00
      21    -1     0     0   515   513  0.000000000E+00  0.000000000E+00 -1.043851306E+03  1.043851306E+03  0.000000000E+00  0.00000E+00  9.000E+00
      -1     1     1     2     0   513  2.423518717E+01  7.068206730E+00  7.863246409E+01  8.258618015E+01  3.300000131E-01  0.00000E+00  9.000E+00
      21     1     1     2   515   514 -1.930429442E+01  1.871510986E+01 -1.003003119E+03  1.003363427E+03  0.000000000E+00  0.00000E+00  9.000E+00
      21     1     1     2   514   511 -4.930892751E+00 -2.578331659E+01 -3.423865376E+01  4.314369628E+01  8.259061849E-07  0.00000E+00  9.000E+00
</event>
<event>
      5  10001  2.02673E+08  2.70714E+01 -1.00000E+00  1.56168E-01
      21    -1     0     0   512   511  0.000000000E+00  0.000000000E+00  3.024906837E+02  3.024906837E+02  0.000000000E+00  0.00000E+00  9.000E+00
      -2    -1     0     0     0   512  0.000000000E+00  0.000000000E+00 -3.910677935E+00  3.910677935E+00  0.000000000E+00  0.00000E+00  9.000E+00
      -2     1     1     2     0   514 -1.719446465E+01  2.268610113E+01  1.360510429E+02  1.389974963E+02  3.300000131E-01  0.00000E+00  9.000E+00
      21     1     1     2   514   513 -1.887167992E+00 -2.051164478E+01  7.383092926E+01  7.665047352E+01  9.536743164E-07  0.00000E+00  9.000E+00
      21     1     1     2   513   511  1.908163264E+01 -2.174456345E+00  8.869803358E+01  9.075339181E+01  1.651812370E-06  0.00000E+00  9.000E+00
</event>
<event>
      5  10001  2.02673E+08  1.47463E+01 -1.00000E+00  1.78036E-01
      21    -1     0     0   515   514  0.000000000E+00  0.000000000E+00  4.465091685E+02  4.465091685E+02  0.000000000E+00  0.00000E+00  9.000E+00
      21    -1     0     0   512   511  0.000000000E+00  0.000000000E+00 -2.760692892E+02  2.760692892E+02  0.000000000E+00  0.00000E+00  9.000E+00
      21     1     1     2   515   511 -2.375981900E+01 -2.015512344E+01  4.262499364E+02  4.273871386E+02  7.629394531E-06  0.00000E+00  9.000E+00
      21     1     1     2   516   514  2.358696516E+01  5.409828603E+00  1.197522766E+01  2.700031942E+01  1.651812370E-06  0.00000E+00  9.000E+00
      21     1     1     2   512   516  1.728538347E-01  1.474529484E+01 -2.677852847E+02  2.681909997E+02  3.814697266E-06  0.00000E+00  9.000E+00
</event>
<event>
      5  10001  2.02673E+08  9.49747E+00 -1.00000E+00  1.98322E-01
      21    -1     0     0   513   511  0.000000000E+00  0.000000000E+00  1.192557749E+02  1.192557749E+02  0.000000000E+00  0.00000E+00  9.000E+00
      21    -1     0     0   512   517  0.000000000E+00  0.000000000E+00 -5.710115826E+00  5.710115826E+00  0.000000000E+00  0.00000E+00  9.000E+00
      21     1     1     2   513   517  1.619279009E+01  1.476785886E+01  3.402288049E+01  4.047039045E+01  1.066240300E-06  0.00000E+00  9.000E+00
      21     1     1     2   514   511 -1.962839191E+01 -1.196378491E+01  5.558870256E+01  6.015405033E+01  6.743495762E-07  0.00000E+00  9.000E+00
      21     1     1     2   512   514  3.435601814E+00 -2.804073951E+00  2.393407604E+01  2.434144997E+01  3.371747881E-07  0.00000E+00  9.000E+00
</event>
<event>
      5  10001  2.02673E+08  1.05852E+01 -1.00000E+00  1.92888E-01
      21    -1     0     0   515   514  0.000000000E+00  0.000000000E+00  4.192468195E+01  4.192468195E+01  0.000000000E+00  0.00000E+00  9.000E+00
      21    -1     0     0   512   516  0.000000000E+00  0.000000000E+00 -7.950994474E+01  7.950994474E+01  0.000000000E+00  0.00000E+00  9.000E+00
      21     1     1     2   515   516 -2.353924394E+01 -9.161279165E+00  3.341019997E+01  4.188396475E+01  4.768371582E-07  0.00000E+00  9.000E+00
       4     1     1     2   512     0  1.584628328E+01  1.359076243E+01 -6.603310245E+01  6.927073073E+01  1.500000000E+00  0.00000E+00  9.000E+00
      -4     1     1     2     0   514  7.692960665E+00 -4.429483262E+00 -4.962360305E+00  1.027993120E+01  1.500000000E+00  0.00000E+00  9.000E+00
</event>
<event>
      5  10001  2.02673E+08  5.68708E+00 -1.00000E+00  2.29065E-01
      21    -1     0     0   511   512  0.000000000E+00  0.000000000E+00  4.197581599E+00  4.197581599E+00  0.000000000E+00  0.00000E+00  9.000E+00
       2    -1     0     0   513     0  0.000000000E+00  0.000000000E+00 -1.481128949E+02  1.481128949E+02  0.000000000E+00  0.00000E+00  9.000E+00
      21     1     1     2   513   512  1.192086624E+01  1.609210023E+01 -2.680128776E+01  3.345701372E+01  5.840038640E-07  0.00000E+00  9.000E+00
      21     1     1     2   511   515 -3.694895286E+00 -3.195203010E+00 -2.420274577E+01  2.469077715E+01  0.000000000E+00  0.00000E+00  9.000E+00
       2     1     1     2   515     0 -8.225970955E+00 -1.289689722E+01 -9.291127977E+01  9.416268563E+01  3.300000131E-01  0.00000E+00  9.000E+00
</event>
<event>
      5  10001  2.02673E+08  9.15830E+00 -1.00000E+00  2.00216E-01
      21    -1     0     0   513   515  0.000000000E+00  0.000000000E+00  9.144552459E+00  9.144552459E+00  0.000000000E+00  0.00000E+00  9.000E+00
      -1    -1     0     0     0   514  0.000000000E+00  0.000000000E+00 -1.280523170E+02  1.280523170E+02  0.000000000E+00  0.00000E+00  9.000E+00
      -1     1     1     2     0   511 -8.214406255E+00  1.611761538E+01 -1.040855116E+02  1.056463753E+02  3.300000131E-01  0.00000E+00  9.000E+00
      21     1     1     2   513   514  1.413100984E+01 -1.443831908E+01 -6.541078356E+00  2.123525848E+01  3.371747881E-07  0.00000E+00  9.000E+00
      21     1     1     2   511   515 -5.916603584E+00 -1.679296307E+00 -8.281174627E+00  1.031523569E+01  2.064765462E-07  0.00000E+00  9.000E+00
</event>
<event>
      5  10001  2.02673E+08  3.55665E+01 -1.00000E+00  1.48044E-01
      21    -1     0     0   512   515  0.000000000E+00  0.000000000E+00  1.617330817E+01  1.617330817E+01  0.000000000E+00  0.00000E+00  9.000E+00
      21    -1     0     0   515   513  0.000000000E+00  0.000000000E+00 -5.178810657E+01  5.178810657E+01  0.000000000E+00  0.00000E+00  9.000E+00
      -4     1     1     2     0   514  9.180117172E-01  1.620108528E+00  1.304325683E+00  2.723740561E+00  1.500000000E+00  0.00000E+00  9.000E+00
       4     1     1     2   512     0  2.097665024E+01 -1.652012050E+01 -2.323957451E+01  3.542967767E+01  1.500000000E+00  0.00000E+00  9.000E+00
      21     1     1     2   514   513 -2.189466196E+01  1.490001197E+01 -1.367954958E+01  2.980799651E+01  6.529361695E-07  0.00000E+00  9.000E+00
</event>
<event>
      5  10001  2.02673E+08  1.61691E+01 -1.00000E+00  1.74321E-01
      21    -1     0     0   511   512  0.000000000E+00  0.000000000E+00  2.454513035E+01  2.454513035E+01  0.000000000E+00  0.00000E+00  9.000E+00
      21    -1     0     0   515   511  0.000000000E+00  0.000000000E+00 -2.321601035E+02  2.321601035E+02  0.000000000E+00  0.00000E+00  9.000E+00
      21     1     1     2   513   516 -2.550222381E+01  1.236671987E+01  7.216776073E+00  2.924689790E+01  9.499417216E-07  0.00000E+00  9.000E+00
      21     1     1     2   515   513  1.208683109E+01 -3.340829572E+00 -2.102898960E+02  2.106634591E+02  4.672030912E-06  0.00000E+00  9.000E+00
      21     1     1     2   516   512  1.341539272E+01 -9.025890302E+00 -4.541853187E+00  1.679487684E+01  1.576990671E-07  0.00000E+00  9.000E+00
</event>
<event>
      5  10001  2.02673E+08  7.86197E+00 -1.00000E+00  2.08597E-01
      21    -1     0     0   514   511  0.000000000E+00  0.000000000E+00  2.338228703E+02  2.338228703E+02  0.000000000E+00  0.00000E+00  9.000E+00
      21    -1     0     0   516   512  0.000000000E+00  0.000000000E+00 -2.709895330E+02  2.709895330E+02  0.000000000E+00  0.00000E+00  9.000E+00
      21     1     1     2   514   512  2.350238102E+01 -2.758333990E+00 -2.663463470E+02  2.673954878E+02  5.394796609E-06  0.00000E+00  9.000E+00
      21     1     1     2   516   515 -2.649572918E+01 -4.511491656E+00  4.070182951E+01  4.877515912E+01  2.132480600E-06  0.00000E+00  9.000E+00
      21     1     1     2   515   511  2.993348161E+00  7.269825645E+00  1.884778548E+02  1.886417564E+02  0.000000000E+00  0.00000E+00  9.000E+00
</event>
<event>
      5  10001  2.02673E+08  1.39833E+01 -1.00000E+00  1.80255E-01
      21    -1     0     0   513   512  0.000000000E+00  0.000000000E+00  2.141556844E+02  2.141556844E+02  0.000000000E+00  0.00000E+00  9.000E+00
      21    -1     0     0   511   513  0.000000000E+00  0.000000000E+00 -4.155619211E+00  4.155619211E+00  0.000000000E+00  0.00000E+00  9.000E+00
      21     1     1     2   511   517  2.511142480E+01  2.194891413E+00  1.154188753E+02  1.181394006E+02  1.907348633E-06  0.00000E+00  9.000E+00
      21     1     1     2   514   512 -1.894753558E+01  1.060870357E+00  3.200218804E+01  3.720584080E+01  6.743495762E-07  0.00000E+00  9.000E+00
      21     1     1     2   517   514 -6.163889217E+00 -3.255761770E+00  6.257900192E+01  6.296606226E+01  6.743495762E-07  0.00000E+00  9.000E+00
</event>
<event>
      5  10001  2.02673E+08  1.38967E+01 -1.00000E+00  1.80518E-01
       1    -1     0     0   514     0  0.000000000E+00  0.000000000E+00  3.448648988E+02  3.448648988E+02  0.000000000E+00  0.00000E+00  9.000E+00
      21    -1     0     0   515   513  0.000000000E+00  0.000000000E+00 -5.324492152E+01  5.324492152E+01  0.000000000E+00  0.00000E+00  9.000E+00
      21     1     1     2   514   513  1.607706680E+01  1.600651526E+01 -4.970974035E+01  5.464191517E+01  9.536743164E-07  0.00000E+00  9.000E+00
       1     1     1     2   511     0 -2.472548355E+01 -1.519274686E+01  2.847641786E+02  2.862392626E+02  3.300000131E-01  0.00000E+00  9.000E+00
      21     1     1     2   515   511  8.648416751E+00 -8.137683999E-01  5.656553895E+01  5.722864255E+01  6.743495762E-07  0.00000E+00  9.000E+00
</event>
<event>
      5  10001  2.02673E+08  4.36950E+00 -1.00000E+00  2.54644E-01
      21    -1     0     0   512   511  0.000000000E+00  0.000000000E+00  1.142281711E+02  1.142281711E+02  0.000000000E+00  0.00000E+00  9.000E+00
      21    -1     0     0   515   516  0.000000000E+00  0.000000000E+00 -7.465016097E+00  7.465016097E+00  0.000000000E+00  0.00000E+00  9.000E+00
      21     1     1     2   512   516  2.114870763E+01  1.178890833E+01  8.312289927E+01  8.657749464E+01  0.000000000E+00  0.00000E+00  9.000E+00
      21     1     1     2   515   513 -1.581441587E+01 -1.153909283E+01  1.390639391E+01  2.401320895E+01  5.591411304E-07  0.00000E+00  9.000E+00
      21     1     1     2   513   511 -5.334291754E+00 -2.498155086E-01  9.733861814E+00  1.110248360E+01  0.000000000E+00  0.00000E+00  9.000E+00
</event>
<event>
      5  10001  2.02673E+08  7.11930E+00 -1.00000E+00  2.14451E-01
      21    -1     0     0   514   513  0.000000000E+00  0.000000000E+00  1.463394701E+01  1.463394701E+01  0.000000000E+00  0.00000E+00  9.000E+00
      21    -1     0     0   511   514  0.000000000E+00  0.000000000E+00 -3.003195989E+01  3.003195989E+01  0.000000000E+00  0.00000E+00  9.000E+00
      21     1     1     2   515   513  8.162296613E+00 -1.782804444E+01 -4.920308750E+00  2.021562991E+01  1.192092896E-07  0.00000E+00  9.000E+00
      21     1     1     2   512   515 -9.595438593E+00  1.081976207E+01 -9.317835460E+00  1.720353890E+01  0.000000000E+00  0.00000E+00  9.000E+00
      21     1     1     2   511   512  1.433141980E+00  7.008282364E+00 -1.159868675E+00  7.246738091E+00  1.519626234E-07  0.00000E+00  9.000E+00
</event>
<event>
      5  10001  2.02673E+08  1.47606E+01 -1.00000E+00  1.77996E-01
      21    -1     0     0   516   512  0.000000000E+00  0.000000000E+00  3.102610367E+02  3.102610367E+02  0.000000000E+00  0.00000E+00  9.000E+00
      21    -1     0     0   511   513  0.000000000E+00  0.000000000E+00 -3.600814728E+01  3.600814728E+01  0.000000000E+00  0.00000E+00  9.000E+00
      21     1     1     2   516   517  2.249705848E+01  3.143495657E+01  2.899810474E+02  2.925462049E+02  0.000000000E+00  0.00000E+00  9.000E+00
      21     1     1     2   511   512 -2.680166222E+01 -1.731593381E+01  3.313415032E-01  3.191050686E+01  1.532235947E-06  0.00000E+00  9.000E+00
      21     1     1     2   517   513  4.304603739E+00 -1.411902276E+01 -1.605949954E+01  2.181247218E+01  5.840038640E-07  0.00000E+00  9.000E+00
</event>
<event>
      5  10001  2.02673E+08  2.07672E+01 -1.00000E+00  1.64991E-01
      21    -1     0     0   511   512  0.000000000E+00  0.000000000E+00  2.258124503E+01  2.258124503E+01  0.000000000E+00  0.00000E+00  9.000E+00
       1    -1     0     0   512     0  0.000000000E+00  0.000000000E+00 -3.995350188E+01  3.995350188E+01  0.000000000E+00  0.00000E+00  9.000E+00
      21     1     1     2   511   514 -1.021245010E+00  1.695127310E+01  1.139352164E+01  2.044996177E+01  1.685873940E-07  0.00000E+00  9.000E+00
       1     1     1     2   515     0 -7.969688847E+00 -6.162390863E+00 -2.584384686E+01  2.773994091E+01  3.300000131E-01  0.00000E+00  9.000E+00
      21     1     1     2   514   515  8.990933856E+00 -1.078888223E+01 -2.921931634E+00  1.434484423E+01  3.237360862E-07  0.00000E+00  9.000E+00
</event>
<event>
      5  10001  2.02673E+08  1.61192E+01 -1.00000E+00  1.74443E-01
      -4    -1     0     0     0   513  0.000000000E+00  0.000000000E+00  5.943948198E+00  5.943948198E+00  0.000000000E+00  0.00000E+00  9.000E+00
      21    -1     0     0   516   511  0.000000000E+00  0.000000000E+00 -4.846355070E+02  4.846355070E+02  0.000000000E+00  0.00000E+00  9.000E+00
      -4     1     1     2     0   512  1.593307706E+01  1.683361545E+01 -2.671710990E+01  3.540180102E+01  1.500000000E+00  0.00000E+00  9.000E+00
      21     1     1     2   512   511 -1.271941626E+01 -3.262513002E+01 -3.686362090E+02  3.702956079E+02  0.000000000E+00  0.00000E+00  9.000E+00
      21     1     1     2   516   513 -3.213660805E+00  1.579151457E+01 -8.333823992E+01  8.488204628E+01  1.348699152E-06  0.00000E+00  9.000E+00
</event>
<event>
      5  10001  2.02673E+08  2.32436E+01 -1.00000E+00  1.61119E-01
      21    -1     0     0   514   512  0.000000000E+00  0.000000000E+00  1.361067327E+02  1.361067327E+02  0.000000000E+00  0.00000E+00  9.000E+00
      21    -1     0     0   515   513  0.000000000E+00  0.000000000E+00 -1.030078982E+01  1.030078982E+01  0.000000000E+00  0.00000E+00  9.000E+00
      21     1     1     2   514   513 -6.940083258E+00  2.662748627E+01  1.559203791E+01  3.162751060E+01  5.057621821E-07  0.00000E+00  9.000E+00
      21     1     1     2   515   511  4.740450049E+00 -1.215615597E+01  2.386219286E+01  2.719647483E+01  3.371747881E-07  0.00000E+00  9.000E+00
      21     1     1     2   511   512  2.199633209E+00 -1.447133029E+01  8.635171215E+01  8.758353714E+01  0.000000000E+00  0.00000E+00  9.000E+00
</event>
<event>
      5  10001  2.02673E+08  8.26651E+00 -1.00000E+00  2.05762E-01
       2    -1     0     0   513     0  0.000000000E+00  0.000000000E+00  1.153787146E+02  1.153787146E+02  0.000000000E+00  0.00000E+00  9.000E+00
      21    -1     0     0   511   516  0.000000000E+00  0.000000000E+00 -7.873946343E+00  7.873946343E+00  0.000000000E+00  0.00000E+00  9.000E+00
      21     1     1     2   513   514  1.232940306E+01 -6.659071379E+00  4.843854191E+00  1.482633922E+01  1.788139343E-07  0.00000E+00  9.000E+00
       2     1     1     2   511     0 -2.187582371E+01  8.505584365E+00  8.589709130E+01  8.904670585E+01  3.300000131E-01  0.00000E+00  9.000E+00
      21     1     1     2   514   516  9.546420649E+00 -1.846512986E+00  1.676382272E+01  1.937961583E+01  2.384185791E-07  0.00000E+00  9.000E+00
</event>
<event>
      5  10001  2.02673E+08  2.50911E+01 -1.00000E+00  1.58595E-01
      -2    -1     0     0     0   512  0.000000000E+00  0.000000000E+00  1.273237783E+02  1.273237783E+02  0.000000000E+00  0.00000E+00  9.000E+00
      21    -1     0     0   511   513  0.000000000E+00  0.000000000E+00 -3.923124734E+02  3.923124734E+02  0.000000000E+00  0.00000E+00  9.000E+00
      -2     1     1     2     0   515  2.723935437E+01  8.749216305E+00  1.241282501E+02  1.273831330E+02  3.300000131E-01  0.00000E+00  9.000E+00
      21     1     1     2   515   513 -3.744350060E+00 -1.755523779E+01 -2.660256985E+02  2.666306036E+02  0.000000000E+00  0.00000E+00  9.000E+00
      21     1     1     2   511   512 -2.349500431E+01  8.806021481E+00 -1.230912468E+02  1.256225151E+02  0.000000000E+00  0.00000E+00  9.000E+00
</event>
<event>
      5  10001  2.02673E+08  8.03850E+00 -1.00000E+00  2.07332E-01
      21    -1     0     0   514   515  0.000000000E+00  0.000000000E+00  5.534423550E+00  5.534423550E+00  0.000000000E+00  0.00000E+00  9.000E+00
       2    -1     0     0   511     0  0.000000000E+00  0.000000000E+00 -4.304700958E+02  4.304700958E+02  0.000000000E+00  0.00000E+00  9.000E+00
      21     1     1     2   514   512  1.436612393E+01 -1.835532484E+01 -2.534568351E+01  3.443409849E+01  8.920806376E-07  0.00000E+00  9.000E+00
      21     1     1     2   511   515 -1.449320459E+01  1.031795297E+01 -8.332410367E+01  8.520222641E+01  0.000000000E+00  0.00000E+00  9.000E+00
       2     1     1     2   512     0  1.270806601E-01  8.037371870E+00 -3.162658850E+02  3.163681944E+02  3.300000131E-01  0.00000E+00  9.000E+00
</event>
<event>
      5  10001  2.02673E+08  9.28926E+00 -1.00000E+00  1.99472E-01
      21    -1     0     0   514   511  0.000000000E+00  0.000000000E+00  1.242309686E+02  1.242309686E+02  0.000000000E+00  0.00000E+00  9.000E+00
      21    -1     0     0   512   516  0.000000000E+00  0.000000000E+00 -2.321475475E+01  2.321475475E+01  0.000000000E+00  0.00000E+00  9.000E+00
      21     1     1     2   513   516  1.588880791E+01  1.299088667E+01  6.501561039E-01  2.053387582E+01  4.707446396E-07  0.00000E+00  9.000E+00
      21     1     1     2   512   511 -9.358251994E+00 -1.959711228E+01 -4.043287929E+00  2.209008527E+01  4.878850443E-07  0.00000E+00  9.000E+00
      21     1     1     2   514   513 -6.530555920E+00  6.606225609E+00  1.044093457E+02  1.048217623E+02  0.000000000E+00  0.00000E+00  9.000E+00
</event>
<event>
      5  10001  2.02673E+08  5.31815E+00 -1.00000E+00  2.33844E-01
       2    -1     0     0   513     0  0.000000000E+00  0.000000000E+00  3.765566108E+02  3.765566108E+02  0.000000000E+00  0.00000E+00  9.000E+00
      -2    -1     0     0     0   513  0.000000000E+00  0.000000000E+00 -2.623785569E+01  2.623785569E+01  0.000000000E+00  0.00000E+00  9.000E+00
      -2     1     1     2     0   511  1.373373255E+01 -1.629166277E+01 -1.695425759E+01  2.723213976E+01  3.300000131E-01  0.00000E+00  9.000E+00
      21     1     1     2   511   515 -1.539332110E+01  2.134419766E+01  3.786757830E+01  4.611380048E+01  8.259061849E-07  0.00000E+00  9.000E+00
       2     1     1     2   515     0  1.659588549E+00 -5.052534890E+00  3.294054344E+02  3.294485262E+02  3.300000131E-01  0.00000E+00  9.000E+00
</event>
<event>
      5  10001  2.02673E+08  7.47638E+00 -1.00000E+00  2.11521E-01
      21    -1     0     0   512   514  0.000000000E+00  0.000000000E+00  5.214601739E+00  5.214601739E+00  0.000000000E+00  0.00000E+00  9.000E+00
       2    -1     0     0   511     0  0.000000000E+00  0.000000000E+00 -1.465152771E+02  1.465152771E+02  0.000000000E+00  0.00000E+00  9.000E+00
      21     1     1     2   511   513 -1.933232686E+00 -2.083460368E+01 -3.343200566E+01  3.944004439E+01  4.768371582E-07  0.00000E+00  9.000E+00
       2     1     1     2   512     0  8.088376445E+00  2.192934796E+01 -9.675225545E+01  9.953605362E+01  3.300000131E-01  0.00000E+00  9.000E+00
      21     1     1     2   513   514 -6.155143759E+00 -1.094744286E+00 -1.111641429E+01  1.275378087E+01  1.685873940E-07  0.00000E+00  9.000E+00
</event>
<event>
      5  10001  2.02673E+08  8.02799E+00 -1.00000E+00  2.07407E-01
       1    -1     0     0   513     0  0.000000000E+00  0.000000000E+00  1.324266231E+03  1.324266231E+03  0.000000000E+00  0.00000E+00  9.000E+00
      21    -1     0     0   515   511  0.000000000E+00  0.000000000E+00 -1.817392764E+00  1.817392764E+00  0.000000000E+00  0.00000E+00  9.000E+00
      21     1     1     2   513   512 -1.604237424E+01  1.761989290E+01  6.950866375E+02  6.954949691E+02  7.629394531E-06  0.00000E+00  9.000E+00
       1     1     1     2   515     0  8.036742892E+00 -1.821647671E+01  6.177249024E+02  6.180457857E+02  3.300000131E-01  0.00000E+00  9.000E+00
      21     1     1     2   512   511  8.005631345E+00  5.965838089E-01  9.637298722E+00  1.254286937E+01  1.238859277E-06  0.00000E+00  9.000E+00
</event>
<event>
      5  10001  2.02673E+08  1.91148E+01 -1.00000E+00  1.67965E-01
      21    -1     0     0   514   511  0.000000000E+00  0.000000000E+00  9.176820786E+00  9.176820786E+00  0.000000000E+00  0.00000E+00  9.000E+00
      21    -1     0     0   512   513  0.000000000E+00  0.000000000E+00 -2.158756776E+02  2.158756776E+02  0.000000000E+00  0.00000E+00  9.000E+00
      21     1     1     2   514   516 -2.051178535E+01 -2.297008769E+01 -1.479168693E+02  1.510885783E+02  0.000000000E+00  0.00000E+00  9.000E+00
      21     1     1     2   512   511  9.808581256E+00  7.132895694E+00  2.542920509E-02  1.212794764E+01  2.437406584E-07  0.00000E+00  9.000E+00
      21     1     1     2   516   513  1.070320410E+01  1.583719200E+01 -5.880741673E+01  6.183597247E+01  0.000000000E+00  0.00000E+00  9.000E+00
</event>
<event>
      5  10001  2.02673E+08  5.36665E+00 -1.00000E+00  2.33185E-01
      21    -1     0     0   515   511  0.000000000E+00  0.000000000E+00  1.540267022E+00  1.540267022E+00  0.000000000E+00  0.00000E+00  9.000E+00
      21    -1     0     0   517   515  0.000000000E+00  0.000000000E+00 -2.707837258E+02  2.707837258E+02  0.000000000E+00  0.00000E+00  9.000E+00
      21     1     1     2   512   511 -1.500112333E+01 -1.306620168E+01 -1.385113050E+02  1.399326300E+02  0.000000000E+00  0.00000E+00  9.000E+00
      21     1     1     2   517   514  1.011892876E+01  6.208026374E+00 -6.026618024E+01  6.142430131E+01  6.743495762E-07  0.00000E+00  9.000E+00
      21     1     1     2   514   512  4.882194577E+00  6.858175304E+00 -7.046597358E+01  7.096706155E+01  0.000000000E+00  0.00000E+00  9.000E+00
</event>
<event>
      5  10001  2.02673E+08  1.39286E+01 -1.00000E+00  1.80421E-01
      21    -1     0     0   513   512  0.000000000E+00  0.000000000E+00  4.490091547E+02  4.490091547E+02  0.000000000E+00  0.00000E+00  9.000E+00
       3    -1     0     0   516     0  0.000000000E+00  0.000000000E+00 -1.061345760E+02  1.061345760E+02  0.000000000E+00  0.00000E+00  9.000E+00
      21     1     1     2   517   512  2.060380936E+01 -2.394233727E+01  4.096541220E+02  4.108701159E+02  5.394796609E-06  0.00000E+00  9.000E+00
      21     1     1     2   516   517 -8.946706497E+00  1.631891433E+01  3.601460451E+01  4.053889811E+01  1.581489940E-06  0.00000E+00  9.000E+00
       3     1     1     2   513     0 -1.165710286E+01  7.623422943E+00 -1.027941478E+02  1.037347167E+02  5.000000000E-01  0.00000E+00  9.000E+00
</event>
<event>
      5  10001  2.02673E+08  3.10752E+01 -1.00000E+00  1.51951E-01
      21    -1     0     0   511   515  0.000000000E+00  0.000000000E+00  5.288974664E+01  5.288974664E+01  0.000000000E+00  0.00000E+00  9.000E+00
      21    -1     0     0   512   514  0.000000000E+00  0.000000000E+00 -5.108055003E+01  5.108055003E+01  0.000000000E+00  0.00000E+00  9.000E+00
      21     1     1     2   511   514 -3.813173066E+01 -2.470342838E+01 -1.128681598E+01  4.681538713E+01  9.078709013E-07  0.00000E+00  9.000E+00
      21     1     1     2   516   515  1.079739287E+01  2.291137280E+01  1.543758825E+01  2.966199297E+01  2.920019320E-07  0.00000E+00  9.000E+00
      21     1     1     2   512   516  2.733433778E+01  1.792055587E+00 -2.341575650E+00  2.749291658E+01  6.529361695E-07  0.00000E+00  9.000E+00
</event>
<event>
      5  10001  2.02673E+08  5.29583E+00 -1.00000E+00  2.34151E-01
      21    -1     0     0   513   511  0.000000000E+00  0.000000000E+00  8.766769529E+01  8.766769529E+01  0.000000000E+00  0.00000E+00  9.000E+00
      21    -1     0     0   512   513  0.000000000E+00  0.000000000E+00 -1.604970397E+02  1.604970397E+02  0.000000000E+00  0.00000E+00  9.000E+00
      21     1     1     2   516   515  2.098727454E+01 -1.374352505E+01 -3.623973376E+01  4.407571300E+01  1.066240300E-06  0.00000E+00  9.000E+00
      21     1     1     2   512   516 -2.005732959E+01  1.895706587E+01 -1.186705294E+02  1.218374383E+02  0.000000000E+00  0.00000E+00  9.000E+00
      21     1     1     2   515   511 -9.299449456E-01 -5.213540817E+00  8.208091873E+01  8.225158373E+01  9.536743164E-07  0.00000E+00  9.000E+00
</event>
<event>
      5  10001  2.02673E+08  6.04423E+00 -1.00000E+00  2.24899E-01
      21    -1     0     0   514   512  0.000000000E+00  0.000000000E+00  5.274573587E+01  5.274573587E+01  0.000000000E+00  0.00000E+00  9.000E+00
      21    -1     0     0   515   511  0.000000000E+00  0.000000000E+00 -2.218070389E+01  2.218070389E+01  0.000000000E+00  0.00000E+00  9.000E+00
      21     1     1     2   514   511 -9.696049177E+00 -1.837621297E+01 -1.340765726E+01  2.472779501E+01  4.129530925E-07  0.00000E+00  9.000E+00
      21     1     1     2   515   513  3.844341127E+00  1.698602808E+01  3.759107765E+01  4.142937638E+01  4.768371582E-07  0.00000E+00  9.000E+00
      21     1     1     2   513   512  5.851708051E+00  1.390184886E+00  6.381611597E+00  8.769268368E+00  1.192092896E-07  0.00000E+00  9.000E+00
</event>
<event>
      5  10001  2.02673E+08  6.65387E+01 -1.00000E+00  1.32320E-01
      21    -1     0     0   516   511  0.000000000E+00  0.000000000E+00  1.324010888E+02  1.324010888E+02  0.000000000E+00  0.00000E+00  9.000E+00
      21    -1     0     0   512   516  0.000000000E+00  0.000000000E+00 -8.938000621E+01  8.938000621E+01  0.000000000E+00  0.00000E+00  9.000E+00
      21     1     1     2   512   517 -2.578623303E+01 -1.091116731E+01 -8.316569094E+01  8.775258136E+01  1.348699152E-06  0.00000E+00  9.000E+00
      21     1     1     2   514   511  2.345375254E+00 -1.187067645E+01  2.681693861E+01  2.942043407E+01  3.371747881E-07  0.00000E+00  9.000E+00
      21     1     1     2   517   514  2.344085778E+01  2.278184376E+01  9.936983493E+01  1.046080796E+02  2.336015456E-06  0.00000E+00  9.000E+00
</event>
<event>
      5  10001  2.02673E+08  1.86394E+01 -1.00000E+00  1.68891E-01
      21    -1     0     0   513   511  0.000000000E+00  0.000000000E+00  6.570616423E+01  6.570616423E+01  0.000000000E+00  0.00000E+00  9.000E+00
       1    -1     0     0   514     0  0.000000000E+00  0.000000000E+00 -7.773074533E+00  7.773074533E+00  0.000000000E+00  0.00000E+00  9.000E+00
      21     1     1     2   514   511  1.649936690E+01 -9.133041847E+00  1.788585856E+01  2.599125811E+01  0.000000000E+00  0.00000E+00  9.000E+00
       1     1     1     2   512     0 -8.251689891E+00  5.593407210E+00  4.712971585E+00  1.103166313E+01  3.300000131E-01  0.00000E+00  9.000E+00
      21     1     1     2   513   512 -8.247677011E+00  3.539634636E+00  3.533425955E+01  3.645631752E+01  0.000000000E+00  0.00000E+00  9.000E+00
</event>
<event>
      5  10001  2.02673E+08  5.67291E+00 -1.00000E+00  2.29239E-01
      21    -1     0     0   515   514  0.000000000E+00  0.000000000E+00  7.962436984E+01  7.962436984E+01  0.000000000E+00  0.00000E+00  9.000E+00
      21    -1     0     0   516   511  0.000000000E+00  0.000000000E+00 -1.342597644E+01  1.342597644E+01  0.000000000E+00  0.00000E+00  9.000E+00
      21     1     1     2   512   514 -1.806298102E+01  1.387962958E+01  5.846759635E+01  6.274850774E+01  0.000000000E+00  0.00000E+00  9.000E+00
      21     1     1     2   516   512  1.450488465E+01 -1.829798953E+01  7.831463951E+00  2.462803133E+01  2.665600750E-07  0.00000E+00  9.000E+00
      21     1     1     2   515   511  3.558096370E+00  4.418359952E+00 -1.006669003E-01  5.673807211E+00  2.803265479E-08  0.00000E+00  9.000E+00
</event>
<event>
      5  10001  2.02673E+08  1.87788E+01 -1.00000E+00  1.68616E-01
      21    -1     0     0   513   511  0.000000000E+00  0.000000000E+00  1.605025354E+01  1.605025354E+01  0.000000000E+00  0.00000E+00  9.000E+00
      21    -1     0     0   514   517  0.000000000E+00  0.000000000E+00 -5.150043440E+01  5.150043440E+01  0.000000000E+00  0.00000E+00  9.000E+00
      21     1     1     2   513   517  1.848757722E+01  8.993995691E+00 -3.608561810E+01  4.153136529E+01  4.768371582E-07  0.00000E+00  9.000E+00
      21     1     1     2   514   512 -1.245059255E+01  1.334569920E+00 -4.065567675E+00  1.316537779E+01  3.371747881E-07  0.00000E+00  9.000E+00
      21     1     1     2   512   511 -6.036984663E+00 -1.032856561E+01  4.701004912E+00  1.285394486E+01  5.430241572E-07  0.00000E+00  9.000E+00
</event>
<event>
      5  10001  2.02673E+08  1.13048E+01 -1.00000E+00  1.89740E-01
       1    -1     0     0   514     0  0.000000000E+00  0.000000000E+00  4.490973132E+01  4.490973132E+01  0.000000000E+00  0.00000E+00  9.000E+00
      21    -1     0     0   512   515  0.000000000E+00  0.000000000E+00 -1.442256930E+02  1.442256930E+02  0.000000000E+00  0.00000E+00  9.000E+00
      21     1     1     2   514   513 -2.130695134E+00  1.158328866E+01 -1.176242787E+02  1.182124502E+02  1.907348633E-06  0.00000E+00  9.000E+00
       1     1     1     2   512     0  6.981604740E+00 -2.303099423E+01  3.955723382E+01  4.630392151E+01  3.300000131E-01  0.00000E+00  9.000E+00
      21     1     1     2   513   515 -4.850909606E+00  1.144770557E+01 -2.124891681E+01  2.461905263E+01  2.384185791E-07  0.00000E+00  9.000E+00
</event>
<event>
      5  10001  2.02673E+08  7.68837E+00 -1.00000E+00  2.09885E-01
      21    -1     0     0   511   512  0.000000000E+00  0.000000000E+00  3.262702097E+01  3.262702097E+01  0.000000000E+00  0.00000E+00  9.000E+00
      21    -1     0     0   514   516  0.000000000E+00  0.000000000E+00 -3.254501710E+01  3.254501710E+01  0.000000000E+00  0.00000E+00  9.000E+00
      21     1     1     2   511   516  2.143852158E+01 -1.277614226E+01  7.041607871E-01  2.496669503E+01  4.281329482E-07  0.00000E+00  9.000E+00
      21     1     1     2   513   512 -1.540636209E+01  8.009156690E+00  1.490196393E+01  2.288167635E+01  4.129530925E-07  0.00000E+00  9.000E+00
      21     1     1     2   514   513 -6.032159487E+00  4.766985570E+00 -1.552412084E+01  1.732366669E+01  1.685873940E-07  0.00000E+00  9.000E+00
</event>
<event>
      5  10001  2.02673E+08  5.70144E+00 -1.00000E+00  2.28889E-01
      21    -1     0     0   515   512  0.000000000E+00  0.000000000E+00  9.456682699E+01  9.456682699E+01  0.000000000E+00  0.00000E+00  9.000E+00
      -1    -1     0     0     0   515  0.000000000E+00  0.000000000E+00 -6.314196965E+01  6.314196965E+01  0.000000000E+00  0.00000E+00  9.000E+00
      -1     1     1     2     0   511  2.838134455E+01 -1.020538877E+01 -5.613464047E+01  6.372485731E+01  3.300000131E-01  0.00000E+00  9.000E+00
      21     1     1     2   511   514 -2.397438186E+01  1.382268322E+01  7.893277516E+01  8.364341308E+01  9.536743164E-07  0.00000E+00  9.000E+00
      21     1     1     2   514   512 -4.406962686E+00 -3.617294451E+00  8.626722656E+00  1.034052625E+01  1.192092896E-07  0.00000E+00  9.000E+00
</event>
<event>
      5  10001  2.02673E+08  7.66634E+00 -1.00000E+00  2.10052E-01
       2    -1     0     0   514     0  0.000000000E+00  0.000000000E+00  2.483535183E+02  2.483535183E+02  0.000000000E+00  0.00000E+00  9.000E+00
      21    -1     0     0   511   515  0.000000000E+00  0.000000000E+00 -2.609346915E+01  2.609346915E+01  0.000000000E+00  0.00000E+00  9.000E+00
      21     1     1     2   511   513  1.541512749E+01  2.693776137E+01 -6.886398186E+00  3.179137655E+01  5.331201500E-07  0.00000E+00  9.000E+00
       2     1     1     2   513     0 -1.371069861E+01 -1.946333114E+01  2.329040524E+02  2.341179426E+02  3.300000131E-01  0.00000E+00  9.000E+00
      21     1     1     2   514   515 -1.704428874E+00 -7.474430237E+00 -3.757605030E+00  8.537668342E+00  9.424321831E-08  0.00000E+00  9.000E+00
</event>
<event>
      5  10001  2.02673E+08  1.35341E+01 -1.00000E+00  1.81647E-01
      21    -1     0     0   512   513  0.000000000E+00  0.000000000E+00  8.674411124E+00  8.674411124E+00  0.000000000E+00  0.00000E+00  9.000E+00
      21    -1     0     0   516   512  0.000000000E+00  0.000000000E+00 -9.443712416E+01  9.443712416E+01  0.000000000E+00  0.00000E+00  9.000E+00
      21     1     1     2   516   511  4.053910990E+00 -2.030743926E+01 -5.727407589E+01  6.090275899E+01  6.743495762E-07  0.00000E+00  9.000E+00
      21     1     1     2   511   517  4.124860074E+00  2.020916525E+01 -1.215330046E+01  2.394008235E+01  0.000000000E+00  0.00000E+00  9.000E+00
      21     1     1     2   517   513 -8.178771064E+00  9.827400518E-02 -1.633533669E+01  1.826869395E+01  2.384185791E-07  0.00000E+00  9.000E+00
</event>
<event>
      5  10001  2.02673E+08  2.27737E+01 -1.00000E+00  1.61806E-01
      21    -1     0     0   515   511  0.000000000E+00  0.000000000E+00  1.098029988E+01  1.098029988E+01  0.000000000E+00  0.00000E+00  9.000E+00
      -2    -1     0     0     0   514  0.000000000E+00  0.000000000E+00 -2.452372349E+02  2.452372349E+02  0.000000000E+00  0.00000E+00  9.000E+00
      -2     1     1     2     0   513 -2.872067095E+01 -2.761124301E+01 -1.836507421E+02  1.879227545E+02  3.300000131E-01  0.00000E+00  9.000E+00
      21     1     1     2   515   514  2.177375117E+01  5.923194422E+00 -3.032705265E+01  3.780093378E+01  1.348699152E-06  0.00000E+00  9.000E+00
      21     1     1     2   513   511  6.946919785E+00  2.168804859E+01 -2.027914030E+01  3.049384655E+01  4.768371582E-07  0.00000E+00  9.000E+00
</event>
<event>
      5  10001  2.02673E+08  3.09232E+00 -1.00000E+00  2.92795E-01
      -1    -1     0     0     0   511  0.000000000E+00  0.000000000E+00  1.701031426E+01  1.701031426E+01  0.000000000E+00  0.00000E+00  9.000E+00
      21    -1     0     0   511   514  0.000000000E+00  0.000000000E+00 -2.952498641E+01  2.952498641E+01  0.000000000E+00  0.00000E+00  9.000E+00
      -1     1     1     2     0   512 -1.979122057E+01  1.245979287E+00 -3.104932545E+00  2.007471997E+01  3.300000131E-01  0.00000E+00  9.000E+00
       2     1     1     2   512     0  2.058820316E+01 -4.232432205E+00 -6.030922092E+00  2.186935100E+01  3.300000131E-01  0.00000E+00  9.000E+00
      -2     1     1     2     0   514 -7.969825945E-01  2.986452918E+00 -3.378817517E+00  4.591229695E+00  3.300000131E-01  0.00000E+00  9.000E+00
</event>
<event>
      5  10001  2.02673E+08  2.49254E+01 -1.00000E+00  1.58810E-01
       2    -1     0     0   512     0  0.000000000E+00  0.000000000E+00  6.425208345E+00  6.425208345E+00  0.000000000E+00  0.00000E+00  9.000E+00
      21    -1     0     0   513   514  0.000000000E+00  0.000000000E+00 -1.223604600E+02  1.223604600E+02  0.000000000E+00  0.00000E+00  9.000E+00
      21     1     1     2   512   511  6.477092129E+00 -5.543328079E+00 -4.196217221E+01  4.281944775E+01  4.768371582E-07  0.00000E+00  9.000E+00
       2     1     1     2   513     0 -1.976537626E+01  1.450252900E+01 -5.957257866E+01  6.442045074E+01  3.300000131E-01  0.00000E+00  9.000E+00
      21     1     1     2   511   514  1.328828413E+01 -8.959200921E+00 -1.440050081E+01  2.154576989E+01  2.920019320E-07  0.00000E+00  9.000E+00
</event>
<event>
      5  10001  2.02673E+08  7.41181E+00 -1.00000E+00  2.12035E-01
      21    -1     0     0   515   513  0.000000000E+00  0.000000000E+00  3.439255168E+01  3.439255168E+01  0.000000000E+00  0.00000E+00  9.000E+00
      21    -1     0     0   511   516  0.000000000E+00  0.000000000E+00 -4.851233635E+01  4.851233635E+01  0.000000000E+00  0.00000E+00  9.000E+00
      21     1     1     2   515   516  1.847553661E+01 -4.381147464E+00  2.751536641E+01  3.343105285E+01  4.768371582E-07  0.00000E+00  9.000E+00
      21     1     1     2   511   512 -1.419989246E+01  5.519180251E-01 -4.135371956E+01  4.372724187E+01  9.536743164E-07  0.00000E+00  9.000E+00
      21     1     1     2   512   513 -4.275644147E+00  3.829229439E+00 -2.814315153E-01  5.746593310E+00  9.577691654E-08  0.00000E+00  9.000E+00
</event>
<event>
      5  10001  2.02673E+08  8.12460E+00 -1.00000E+00  2.06731E-01
       1    -1     0     0   511     0  0.000000000E+00  0.000000000E+00  7.457936404E+01  7.457936404E+01  0.000000000E+00  0.00000E+00  9.000E+00
      21    -1     0     0   512   514  0.000000000E+00  0.000000000E+00 -1.165449881E+01  1.165449881E+01  0.000000000E+00  0.00000E+00  9.000E+00
       2     1     1     2   511     0  1.094213661E+01 -1.010826613E+00  3.783628799E+00  1.162655886E+01  3.300000131E-01  0.00000E+00  9.000E+00
       1     1     1     2   512     0 -2.443013173E+01  9.642005164E+00  4.915480762E+01  5.573242873E+01  3.300000131E-01  0.00000E+00  9.000E+00
      -2     1     1     2     0   514  1.348799512E+01 -8.631178550E+00  9.986428813E+00  1.887487526E+01  3.300000131E-01  0.00000E+00  9.000E+00
</event>
<event>
      5  10001  2.02673E+08  1.84008E+01 -1.00000E+00  1.69368E-01
      21    -1     0     0   513   512  0.000000000E+00  0.000000000E+00  5.362184365E+01  5.362184365E+01  0.000000000E+00  0.00000E+00  9.000E+00
      21    -1     0     0   516   515  0.000000000E+00  0.000000000E+00 -6.219376866E+01  6.219376866E+01  0.000000000E+00  0.00000E+00  9.000E+00
      21     1     1     2   513   515  2.575841777E+01 -1.340275578E+00 -5.356897291E+01  5.945525446E+01  6.743495762E-07  0.00000E+00  9.000E+00
      21     1     1     2   516   511 -1.157770027E+01  1.071125220E+01  2.903816209E+01  3.304525571E+01  6.743495762E-07  0.00000E+00  9.000E+00
      21     1     1     2   511   512 -1.418071750E+01 -9.370976620E+00  1.595888581E+01  2.331510214E+01  4.768371582E-07  0.00000E+00  9.000E+00
</event>
<event>
      5  10001  2.02673E+08  1.28344E+01 -1.00000E+00  1.83959E-01
      -1    -1     0     0     0   512  0.000000000E+00  0.000000000E+00  1.975821999E+01  1.975821999E+01  0.000000000E+00  0.00000E+00  9.000E+00
      -2    -1     0     0     0   513  0.000000000E+00  0.000000000E+00 -2.762128885E+02  2.762128885E+02  0.000000000E+00  0.00000E+00  9.000E+00
      -1     1     1     2     0   513 -4.452296957E+00  2.100740396E+01  9.687872682E+00  2.356051244E+01  3.300000131E-01  0.00000E+00  9.000E+00
      21     1     1     2   511   512  7.048612298E+00 -3.357626386E+01 -9.900905783E+01  1.047847411E+02  1.348699152E-06  0.00000E+00  9.000E+00
      -2     1     1     2     0   511 -2.596315341E+00  1.256885990E+01 -1.671334833E+02  1.676258549E+02  3.300000131E-01  0.00000E+00  9.000E+00
</event>
<event>
      5  10001  2.02673E+08  8.61519E+00 -1.00000E+00  2.03488E-01
       2    -1     0     0   514     0  0.000000000E+00  0.000000000E+00  7.402397639E+02  7.402397639E+02  0.000000000E+00  0.00000E+00  9.000E+00
      21    -1     0     0   516   515  0.000000000E+00  0.000000000E+00 -7.148401720E+00  7.148401720E+00  0.000000000E+00  0.00000E+00  9.000E+00
      21     1     1     2   514   515  1.186930071E+00 -2.548486254E+01  1.139975831E+02  1.168175328E+02  2.697398305E-06  0.00000E+00  9.000E+00
      21     1     1     2   516   511  7.342264552E+00  2.427104655E+01  2.245815556E+01  3.387272207E+01  1.192092896E-06  0.00000E+00  9.000E+00
       2     1     1     2   511     0 -8.529194623E+00  1.213815984E+00  5.966356235E+02  5.966979107E+02  3.300000131E-01  0.00000E+00  9.000E+00
</event>
<event>
      5  10001  2.02673E+08  1.66625E+01 -1.00000E+00  1.73143E-01
      21    -1     0     0   512   515  0.000000000E+00  0.000000000E+00  3.273398598E+01  3.273398598E+01  0.000000000E+00  0.00000E+00  9.000E+00
      21    -1     0     0   517   514  0.000000000E+00  0.000000000E+00 -1.643646035E+02  1.643646035E+02  0.000000000E+00  0.00000E+00  9.000E+00
      21     1     1     2   512   513 -1.035467241E+01 -1.691027222E+01  1.969368917E+00  1.992623801E+01  3.061091689E-07  0.00000E+00  9.000E+00
      21     1     1     2   517   515  2.433369487E+01  7.842348847E+00  1.365044962E+01  2.898216548E+01  2.920019320E-07  0.00000E+00  9.000E+00
      21     1     1     2   513   514 -1.397902246E+01  9.067923369E+00 -1.472504361E+02  1.481901860E+02  2.697398305E-06  0.00000E+00  9.000E+00
</event>
<event>
      5  10001  2.02673E+08  9.77719E+00 -1.00000E+00  1.96836E-01
      21    -1     0     0   512   515  0.000000000E+00  0.000000000E+00  7.715540634E+01  7.715540634E+01  0.000000000E+00  0.00000E+00  9.000E+00
      21    -1     0     0   516   511  0.000000000E+00  0.000000000E+00 -1.072363001E+02  1.072363001E+02  0.000000000E+00  0.00000E+00  9.000E+00
      21     1     1     2   514   515 -2.386459887E+01 -2.708436909E+01  6.011608654E+01  7.012150875E+01  1.651812370E-06  0.00000E+00  9.000E+00
      21     1     1     2   516   514  1.688454937E+01  2.023803343E+01 -9.817483028E+01  1.016511845E+02  1.907348633E-06  0.00000E+00  9.000E+00
      21     1     1     2   512   511  6.980049501E+00  6.846335657E+00  7.977850017E+00  1.261901319E+01  2.665600750E-07  0.00000E+00  9.000E+00
</event>
<event>
      5  10001  2.02673E+08  2.77903E+01 -1.00000E+00  1.55348E-01
      21    -1     0     0   516   514  0.000000000E+00  0.000000000E+00  2.379546494E+01  2.379546494E+01  0.000000000E+00  0.00000E+00  9.000E+00
       2    -1     0     0   514     0  0.000000000E+00  0.000000000E+00 -3.617840518E+02  3.617840518E+02  0.000000000E+00  0.00000E+00  9.000E+00
      21     1     1     2   516   513 -1.386166924E+01  2.772093929E+01  9.357532837E+00  3.237529568E+01  5.462855929E-07  0.00000E+00  9.000E+00
       2     1     1     2   515     0 -5.994420692E+00 -2.737548240E+01 -3.065787560E+02  3.078570977E+02  3.300000131E-01  0.00000E+00  9.000E+00
      21     1     1     2   513   515  1.985608994E+01 -3.454568920E-01 -4.076736377E+01  4.534712336E+01  4.768371582E-07  0.00000E+00  9.000E+00
</event>
<event>
      5  10001  2.02673E+08  5.76293E+00 -1.00000E+00  2.28145E-01
      21    -1     0     0   512   514  0.000000000E+00  0.000000000E+00  8.061926760E+01  8.061926760E+01  0.000000000E+00  0.00000E+00  9.000E+00
      21    -1     0     0   511   512  0.000000000E+00  0.000000000E+00 -1.941966557E+01  1.941966557E+01  0.000000000E+00  0.00000E+00  9.000E+00
      21     1     1     2   516   514  1.101717690E+01  8.564080786E+00  6.108707362E+01  6.266061147E+01  6.743495762E-07  0.00000E+00  9.000E+00
       1     1     1     2   511     0 -1.826970852E+01 -1.039133753E+01 -1.119587585E+01  2.381635323E+01  3.300000131E-01  0.00000E+00  9.000E+00
      -1     1     1     2     0   516  7.252531619E+00  1.827256745E+00  1.130840426E+01  1.356196848E+01  3.300000131E-01  0.00000E+00  9.000E+00
</event>
<event>
      5  10001  2.02673E+08  6.07349E+01 -1.00000E+00  1.34395E-01
      -1    -1     0     0     0   513  0.000000000E+00  0.000000000E+00  2.149350879E+02  2.149350879E+02  0.000000000E+00  0.00000E+00  9.000E+00
      21    -1     0     0   513   512  0.000000000E+00  0.000000000E+00 -7.558746681E+00  7.558746681E+00  0.000000000E+00  0.00000E+00  9.000E+00
      21     1     1     2   511   515  7.193422065E+00 -1.346503064E+01  5.674071769E+01  5.875850079E+01  6.743495762E-07  0.00000E+00  9.000E+00
      21     1     1     2   515   512 -6.385852446E+00 -1.574259696E+01  9.213697474E+00  1.932616598E+01  6.078504936E-07  0.00000E+00  9.000E+00
      -1     1     1     2     0   511 -8.075696196E-01  2.920762759E+01  1.414219261E+02  1.444091678E+02  3.300000131E-01  0.00000E+00  9.000E+00
</event>
<event>
      5  10001  2.02673E+08  9.93453E+00 -1.00000E+00  1.96029E-01
       3    -1     0     0   511     0  0.000000000E+00  0.000000000E+00  8.838478799E+01  8.838478799E+01  0.000000000E+00  0.00000E+00  9.000E+00
      21    -1     0     0   515   511  0.000000000E+00  0.000000000E+00 -5.607650008E+01  5.607650008E+01  0.000000000E+00  0.00000E+00  9.000E+00
      21     1     1     2   515   512  7.705392811E+00  1.189366238E+01 -4.930998447E+01  5.130601185E+01  1.507891493E-06  0.00000E+00  9.000E+00
       3     1     1     2   514     0 -1.625908591E+01 -1.133294228E+01  8.220627246E+01  8.456308111E+01  5.000000000E-01  0.00000E+00  9.000E+00
      21     1     1     2   512   514  8.553693103E+00 -5.607201037E-01 -5.880000829E-01  8.592195111E+00  1.523274802E-07  0.00000E+00  9.000E+00
</event>
<event>
      5  10001  2.02673E+08  5.00116E+00 -1.00000E+00  2.38411E-01
      21    -1     0     0   511   514  0.000000000E+00  0.000000000E+00  9.936327755E+02  9.936327755E+02  0.000000000E+00  0.00000E+00  9.000E+00
      21    -1     0     0   512   516  0.000000000E+00  0.000000000E+00 -7.046219623E-01  7.046219623E-01  0.000000000E+00  0.00000E+00  9.000E+00
      21     1     1     2   513   516 -1.948120804E+01 -1.332635371E+01  4.059069940E+02  4.065926671E+02  0.000000000E+00  0.00000E+00  9.000E+00
      21     1     1     2   512   514  1.723590442E+01  8.857550800E+00  2.743398011E+02  2.750233791E+02  3.814697266E-06  0.00000E+00  9.000E+00
      21     1     1     2   511   513  2.245303614E+00  4.468802908E+00  3.126813585E+02  3.127213512E+02  0.000000000E+00  0.00000E+00  9.000E+00
</event>
<event>
      5  10001  2.02673E+08  5.01882E+00 -1.00000E+00  2.38144E-01
      21    -1     0     0   514   512  0.000000000E+00  0.000000000E+00  2.452393633E+02  2.452393633E+02  0.000000000E+00  0.00000E+00  9.000E+00
       1    -1     0     0   511     0  0.000000000E+00  0.000000000E+00 -4.214592460E+02  4.214592460E+02  0.000000000E+00  0.00000E+00  9.000E+00
      21     1     1     2   511   512 -1.400090910E+01  1.374733313E+01  3.515666447E+00  1.993425530E+01  5.900558792E-07  0.00000E+00  9.000E+00
       1     1     1     2   515     0  1.893771745E+01 -1.465092422E+01 -4.128760401E+02  4.135698492E+02  3.300000131E-01  0.00000E+00  9.000E+00
      21     1     1     2   514   515 -4.936808349E+00  9.035910851E-01  2.331404909E+02  2.331945048E+02  4.672030912E-06  0.00000E+00  9.000E+00
</event>
<event>
      5  10001  2.02673E+08  7.53719E+00 -1.00000E+00  2.11045E-01
      21    -1     0     0   513   512  0.000000000E+00  0.000000000E+00  2.176324213E+02  2.176324213E+02  0.000000000E+00  0.00000E+00  9.000E+00
      21    -1     0     0   516   513  0.000000000E+00  0.000000000E+00 -2.447273836E+01  2.447273836E+01  0.000000000E+00  0.00000E+00  9.000E+00
      21     1     1     2   516   511  1.753839023E+01  1.215272130E+01 -1.913132340E+01  2.865818037E+01  7.539457465E-07  0.00000E+00  9.000E+00
       2     1     1     2   511     0 -6.183178912E+00 -1.942344881E+00  8.390187404E+01  8.415246742E+01  3.300000131E-01  0.00000E+00  9.000E+00
      -2     1     1     2     0   512 -1.135521132E+01 -1.021037642E+01  1.283891323E+02  1.292945119E+02  3.300000131E-01  0.00000E+00  9.000E+00
</event>
<event>
      5  10001  2.02673E+08  2.15690E+01 -1.00000E+00  1.63667E-01
      21    -1     0     0   514   511  0.000000000E+00  0.000000000E+00  9.450853894E+01  9.450853894E+01  0.000000000E+00  0.00000E+00  9.000E+00
      21    -1     0     0   513   514  0.000000000E+00  0.000000000E+00 -6.984868246E+01  6.984868246E+01  0.000000000E+00  0.00000E+00  9.000E+00
      21     1     1     2   512   515  1.711110267E+01  6.678964843E+00 -5.639885341E+01  5.931466153E+01  6.743495762E-07  0.00000E+00  9.000E+00
      21     1     1     2   515   511 -2.437200044E+01  1.363117366E+01  7.850402977E+01  8.332278195E+01  1.651812370E-06  0.00000E+00  9.000E+00
      21     1     1     2   513   512  7.260897769E+00 -2.031013850E+01  2.554680121E+00  2.171977792E+01  3.625608999E-07  0.00000E+00  9.000E+00
</event>
<event>
      5  10001  2.02673E+08  3.00981E+00 -1.00000E+00  2.96300E-01
      21    -1     0     0   514   511  0.000000000E+00  0.000000000E+00  1.569960958E+02  1.569960958E+02  0.000000000E+00  0.00000E+00  9.000E+00
       2    -1     0     0   511     0  0.000000000E+00  0.000000000E+00 -5.259671298E+02  5.259671298E+02  0.000000000E+00  0.00000E+00  9.000E+00
      21     1     1     2   515   513 -1.146675378E+01  1.926327938E+01 -1.001823442E+01  2.455453921E+01  1.415531884E-06  0.00000E+00  9.000E+00
       2     1     1     2   513     0  1.230221629E+01 -2.215480824E+01 -5.083499119E+02  5.089812589E+02  3.300000131E-01  0.00000E+00  9.000E+00
      21     1     1     2   514   515 -8.354625055E-01  2.891528858E+00  1.493971123E+02  1.494274275E+02  0.000000000E+00  0.00000E+00  9.000E+00
</event>
<event>
      5  10001  2.02673E+08  1.20694E+01 -1.00000E+00  1.86712E-01
      21    -1     0     0   512   515  0.000000000E+00  0.000000000E+00  1.370231329E+01  1.370231329E+01  0.000000000E+00  0.00000E+00  9.000E+00
       2    -1     0     0   511     0  0.000000000E+00  0.000000000E+00 -1.048969709E+03  1.048969709E+03  0.000000000E+00  0.00000E+00  9.000E+00
      21     1     1     2   516   515  1.540502906E+01  3.584785235E+01 -1.888532460E+01  4.334788257E+01  1.526623782E-06  0.00000E+00  9.000E+00
      21     1     1     2   511   516 -2.317535889E+01 -2.661246368E+01 -2.169833810E+02  2.198342742E+02  0.000000000E+00  0.00000E+00  9.000E+00
       2     1     1     2   512     0  7.770329836E+00 -9.235388667E+00 -7.993986902E+02  7.994898656E+02  3.300000131E-01  0.00000E+00  9.000E+00
</event>
<event>
      5  10001  2.02673E+08  5.03794E+01 -1.00000E+00  1.38860E-01
       2    -1     0     0   514     0  0.000000000E+00  0.000000000E+00  4.497082852E+02  4.497082852E+02  0.000000000E+00  0.00000E+00  9.000E+00
      21    -1     0     0   513   514  0.000000000E+00  0.000000000E+00 -4.054556996E+00  4.054556996E+00  0.000000000E+00  0.00000E+00  9.000E+00
      21     1     1     2   511   512 -4.218553335E+00  1.743987739E+00  3.371179391E+01  3.401944642E+01  4.768371582E-07  0.00000E+00  9.000E+00
       2     1     1     2   512     0  1.540813522E+01 -2.415417227E+01  3.683860479E+02  3.694986115E+02  3.300000131E-01  0.00000E+00  9.000E+00
      21     1     1     2   513   511 -1.118958189E+01  2.241018454E+01  4.355588636E+01  5.024478431E+01  1.784161275E-06  0.00000E+00  9.000E+00
</event>
<event>
      5  10001  2.02673E+08  1.93581E+01 -1.00000E+00  1.67504E-01
       1    -1     0     0   511     0  0.000000000E+00  0.000000000E+00  2.798349830E+01  2.798349830E+01  0.000000000E+00  0.00000E+00  9.000E+00
      21    -1     0     0   512   511  0.000000000E+00  0.000000000E+00 -3.115667365E+01  3.115667365E+01  0.000000000E+00  0.00000E+00  9.000E+00
      21     1     1     2   512   515  6.674669255E+00 -2.312863944E+01 -1.278894300E+01  2.725880106E+01  5.331201500E-07  0.00000E+00  9.000E+00
      21     1     1     2   515   514 -1.073062582E+01  1.123177881E+01 -7.994210824E-01  1.555436466E+01  3.227056239E-07  0.00000E+00  9.000E+00
       1     1     1     2   514     0  4.055956566E+00  1.189686063E+01  1.041518873E+01  1.632700624E+01  3.300000131E-01  0.00000E+00  9.000E+00
</event>
<event>
      5  10001  2.02673E+08  9.24255E+00 -1.00000E+00  1.99736E-01
      21    -1     0     0   513   515  0.000000000E+00  0.000000000E+00  1.910743603E+02  1.910743603E+02  0.000000000E+00  0.00000E+00  9.000E+00
      21    -1     0     0   512   511  0.000000000E+00  0.000000000E+00 -3.003316607E+01  3.003316607E+01  0.000000000E+00  0.00000E+00  9.000E+00
      21     1     1     2   513   516  1.148572980E+01  1.488972518E+01  5.482400869E+01  5.795944991E+01  1.784161275E-06  0.00000E+00  9.000E+00
      21     1     1     2   512   515 -2.071661866E+01 -1.442564443E+01  1.327098124E+02  1.350894956E+02  2.697398305E-06  0.00000E+00  9.000E+00
      21     1     1     2   516   511  9.230888861E+00 -4.640807527E-01 -2.649262689E+01  2.805858086E+01  1.066240300E-06  0.00000E+00  9.000E+00
</event>
<event>
      5  10001  2.02673E+08  1.15385E+01 -1.00000E+00  1.88782E-01
      21    -1     0     0   513   512  0.000000000E+00  0.000000000E+00  2.486030435E+00  2.486030435E+00  0.000000000E+00  0.00000E+00  9.000E+00
       2    -1     0     0   515     0  0.000000000E+00  0.000000000E+00 -6.221797007E+02  6.221797007E+02  0.000000000E+00  0.00000E+00  9.000E+00
      21     1     1     2   515   512 -5.251947762E-01 -2.630464165E+01 -4.408888571E+02  4.416731759E+02  7.629394531E-06  0.00000E+00  9.000E+00
       2     1     1     2   514     0 -1.065053919E+01  2.343515326E+01 -1.451366872E+02  1.474021956E+02  3.300000131E-01  0.00000E+00  9.000E+00
      21     1     1     2   513   514  1.117573396E+01  2.869488391E+00 -3.366812601E+01  3.559035968E+01  4.768371582E-07  0.00000E+00  9.000E+00
</event>
<event>
      5  10001  2.02673E+08  2.54911E+01 -1.00000E+00  1.58083E-01
      21    -1     0     0   514   515  0.000000000E+00  0.000000000E+00  1.191824107E+02  1.191824107E+02  0.000000000E+00  0.00000E+00  9.000E+00
      21    -1     0     0   511   514  0.000000000E+00  0.000000000E+00 -3.657006444E+00  3.657006444E+00  0.000000000E+00  0.00000E+00  9.000E+00
      -2     1     1     2     0   515 -8.847559943E+00  1.015236292E+00  1.868902031E+01  2.070503325E+01  3.300000131E-01  0.00000E+00  9.000E+00
      21     1     1     2   511   512  1.293640431E+01 -1.069545060E+01  8.340650279E+01  8.507871606E+01  9.536743164E-07  0.00000E+00  9.000E+00
       2     1     1     2   512     0 -4.088844365E+00  9.680214312E+00  1.342988118E+01  1.705566785E+01  3.300000131E-01  0.00000E+00  9.000E+00
</event>
<event>
      5  10001  2.02673E+08  1.03365E+01 -1.00000E+00  1.94053E-01
      21    -1     0     0   512   511  0.000000000E+00  0.000000000E+00  9.545558605E+00  9.545558605E+00  0.000000000E+00  0.00000E+00  9.000E+00
       5    -1     0     0   513     0  0.000000000E+00  0.000000000E+00 -6.749430865E+01  6.749430865E+01  0.000000000E+00  0.00000E+00  9.000E+00
      21     1     1     2   514   511 -6.809440009E+00  1.905360016E+01 -1.660533033E+01  2.617527741E+01  2.384185791E-07  0.00000E+00  9.000E+00
       5     1     1     2   512     0  1.131737838E+01 -1.903097820E+01 -2.425033047E+01  3.318704137E+01  4.800000191E+00  0.00000E+00  9.000E+00
      21     1     1     2   513   514 -4.507938376E+00 -2.262195875E-02 -1.709308924E+01  1.767754847E+01  2.384185791E-07  0.00000E+00  9.000E+00
</event>
<event>
      5  10001  2.02673E+08  4.40885E+00 -1.00000E+00  2.53793E-01
      21    -1     0     0   515   512  0.000000000E+00  0.000000000E+00  3.722303964E+01  3.722303964E+01  0.000000000E+00  0.00000E+00  9.000E+00
      21    -1     0     0   511   514  0.000000000E+00  0.000000000E+00 -1.287569477E+02  1.287569477E+02  0.000000000E+00  0.00000E+00  9.000E+00
      21     1     1     2   515   514 -3.212940388E+00 -2.354767330E+01  1.607962675E+01  2.869442977E+01  4.768371582E-07  0.00000E+00  9.000E+00
      21     1     1     2   511   513  5.270150778E+00  2.744713581E+01 -1.204828425E+02  1.236819918E+02  1.348699152E-06  0.00000E+00  9.000E+00
      21     1     1     2   513   512 -2.057210390E+00 -3.899462514E+00  1.286930768E+01  1.360356580E+01  2.384185791E-07  0.00000E+00  9.000E+00
</event>
<event>
      5  10001  2.02673E+08  2.02817E+01 -1.00000E+00  1.65828E-01
      21    -1     0     0   516   513  0.000000000E+00  0.000000000E+00  6.379021501E+00  6.379021501E+00  0.000000000E+00  0.00000E+00  9.000E+00
       1    -1     0     0   512     0  0.000000000E+00  0.000000000E+00 -2.907290927E+02  2.907290927E+02  0.000000000E+00  0.00000E+00  9.000E+00
      21     1     1     2   511   513  1.287892246E+01  4.841368229E+00 -1.304135942E+01  1.895738762E+01  5.057621821E-07  0.00000E+00  9.000E+00
      21     1     1     2   512   511 -3.227270440E+01 -1.077528191E+01 -9.966432890E+01  1.053119775E+02  1.348699152E-06  0.00000E+00  9.000E+00
       1     1     1     2   516     0  1.939378195E+01  5.933913679E+00 -1.716443829E+02  1.728387491E+02  3.300000131E-01  0.00000E+00  9.000E+00
</event>
<event>
      5  10001  2.02673E+08  9.90288E+00 -1.00000E+00  1.96190E-01
       2    -1     0     0   512     0  0.000000000E+00  0.000000000E+00  1.081448227E+03  1.081448227E+03  0.000000000E+00  0.00000E+00  9.000E+00
      21    -1     0     0   511   515  0.000000000E+00  0.000000000E+00 -8.842750270E+01  8.842750270E+01  0.000000000E+00  0.00000E+00  9.000E+00
      21     1     1     2   512   515 -2.595567305E+01 -3.665055207E+00 -8.041944026E+00  2.741901633E+01  2.158972058E-06  0.00000E+00  9.000E+00
       2     1     1     2   514     0  3.499477722E+01  7.710002398E+00  1.071111780E+03  1.071711077E+03  3.300000131E-01  0.00000E+00  9.000E+00
      21     1     1     2   511   514 -9.039104169E+00 -4.044947191E+00 -7.004911170E+01  7.074563627E+01  3.015782986E-06  0.00000E+00  9.000E+00
</event>
<event>
      5  10001  2.02673E+08  1.34599E+01 -1.00000E+00  1.81884E-01
      21    -1     0     0   513   514  0.000000000E+00  0.000000000E+00  3.150700541E+00  3.150700541E+00  0.000000000E+00  0.00000E+00  9.000E+00
      21    -1     0     0   511   513  0.000000000E+00  0.000000000E+00 -1.671917213E+02  1.671917213E+02  0.000000000E+00  0.00000E+00  9.000E+00
      21     1     1     2   511   516 -1.581287690E+01  1.377989064E+01 -7.368514871E+01  7.661222880E+01  9.536743164E-07  0.00000E+00  9.000E+00
      21     1     1     2   516   512  9.589005660E+00 -4.808387401E+00 -6.810474793E+01  6.894437112E+01  9.536743164E-07  0.00000E+00  9.000E+00
      21     1     1     2   512   514  6.223871241E+00 -8.971503234E+00 -2.225112413E+01  2.478582193E+01  2.384185791E-07  0.00000E+00  9.000E+00
</event>
<event>
      5  10001  2.02673E+08  2.84390E+01 -1.00000E+00  1.54634E-01
      21    -1     0     0   511   512  0.000000000E+00  0.000000000E+00  3.808705581E+00  3.808705581E+00  0.000000000E+00  0.00000E+00  9.000E+00
      -4    -1     0     0     0   515  0.000000000E+00  0.000000000E+00 -3.242478511E+02  3.242478511E+02  0.000000000E+00  0.00000E+00  9.000E+00
      -4     1     1     2     0   513  2.673455432E+01 -1.091610400E+01 -1.637340623E+02  1.662678288E+02  1.500000000E+00  0.00000E+00  9.000E+00
      21     1     1     2   511   515 -1.590027029E+01  1.851209436E+01 -1.261966978E+02  1.285345198E+02  2.336015456E-06  0.00000E+00  9.000E+00
      21     1     1     2   513   512 -1.083428404E+01 -7.595990360E+00 -3.050838537E+01  3.325420812E+01  4.768371582E-07  0.00000E+00  9.000E+00
</event>
<event>
      5  10001  2.02673E+08  5.23530E+00 -1.00000E+00  2.34993E-01
      21    -1     0     0   511   513  0.000000000E+00  0.000000000E+00  1.176786972E+02  1.176786972E+02  0.000000000E+00  0.00000E+00  9.000E+00
      21    -1     0     0   512   514  0.000000000E+00  0.000000000E+00 -1.189035507E+01  1.189035507E+01  0.000000000E+00  0.00000E+00  9.000E+00
      21     1     1     2   512   516 -5.757795113E+00  2.209969197E+01  5.176571743E+00  2.341677785E+01  2.064765462E-07  0.00000E+00  9.000E+00
      21     1     1     2   516   513  6.987570278E+00 -1.701088188E+01  2.893491557E+01  3.428448016E+01  3.371747881E-07  0.00000E+00  9.000E+00
      21     1     1     2   511   514 -1.229775165E+00 -5.088810092E+00  7.167685483E+01  7.186779428E+01  0.000000000E+00  0.00000E+00  9.000E+00
</event>
<event>
      5  10001  2.02673E+08  1.41375E+01 -1.00000E+00  1.79792E-01
      21    -1     0     0   515   514  0.000000000E+00  0.000000000E+00  1.528585182E+01  1.528585182E+01  0.000000000E+00  0.00000E+00  9.000E+00
       4    -1     0     0   512     0  0.000000000E+00  0.000000000E+00 -2.190553302E+02  2.190553302E+02  0.000000000E+00  0.00000E+00  9.000E+00
      21     1     1     2   515   517 -3.793612397E+01 -5.427352039E+00 -4.137827379E+01  5.639829070E+01  1.066240300E-06  0.00000E+00  9.000E+00
      21     1     1     2   512   514  2.646173943E+01 -2.825479034E+00 -1.639627192E+01  3.125771454E+01  3.371747881E-07  0.00000E+00  9.000E+00
       4     1     1     2   517     0  1.147438453E+01  8.252831073E+00 -1.459949327E+02  1.466851768E+02  1.500000000E+00  0.00000E+00  9.000E+00
</event>
<event>
      5  10001  2.02673E+08  1.80102E+01 -1.00000E+00  1.70170E-01
       2    -1     0     0   512     0  0.000000000E+00  0.000000000E+00  2.755606624E+02  2.755606624E+02  0.000000000E+00  0.00000E+00  9.000E+00
      21    -1     0     0   511   513  0.000000000E+00  0.000000000E+00 -1.231138791E+01  1.231138791E+01  0.000000000E+00  0.00000E+00  9.000E+00
      21     1     1     2   514   513  1.523103677E+01  1.165411116E+00 -5.794596584E+00  1.633768691E+01  7.202056631E-07  0.00000E+00  9.000E+00
       2     1     1     2   511     0 -2.445473059E+01  2.056845296E+00  2.291881665E+02  2.304985662E+02  3.300000131E-01  0.00000E+00  9.000E+00
      21     1     1     2   512   514  9.223693823E+00 -3.222256412E+00  3.985570451E+01  4.103579713E+01  4.768371582E-07  0.00000E+00  9.000E+00
</event>
<event>
      5  10001  2.02673E+08  1.52683E+01 -1.00000E+00  1.76614E-01
      21    -1     0     0   515   511  0.000000000E+00  0.000000000E+00  2.360558433E+00  2.360558433E+00  0.000000000E+00  0.00000E+00  9.000E+00
       1    -1     0     0   512     0  0.000000000E+00  0.000000000E+00 -3.248433394E+02  3.248433394E+02  0.000000000E+00  0.00000E+00  9.000E+00
      21     1     1     2   512   511 -1.723841974E+01 -1.952974486E+01 -2.043944058E+02  2.060476818E+02  3.814697266E-06  0.00000E+00  9.000E+00
      21     1     1     2   515   513  2.775238505E+00  2.334061490E+00 -7.799868438E+00  8.601612607E+00  1.192092896E-07  0.00000E+00  9.000E+00
       1     1     1     2   513     0  1.446318123E+01  1.719568337E+01 -1.102885067E+02  1.125546035E+02  3.300000131E-01  0.00000E+00  9.000E+00
</event>
<event>
      5  10001  2.02673E+08  4.38140E+01 -1.00000E+00  1.42399E-01
      21    -1     0     0   514   515  0.000000000E+00  0.000000000E+00  1.815312608E+01  1.815312608E+01  0.000000000E+00  0.00000E+00  9.000E+00
      21    -1     0     0   516   514  0.000000000E+00  0.000000000E+00 -5.731956434E+02  5.731956434E+02  0.000000000E+00  0.00000E+00  9.000E+00
      21     1     1     2   516   512  3.797499968E+01  1.720330872E+01 -4.360369222E+02  4.380254010E+02  5.394796609E-06  0.00000E+00  9.000E+00
      21     1     1     2   512   511 -4.574946346E+01  2.591545487E+01 -7.068429089E+01  8.809593172E+01  1.907348633E-06  0.00000E+00  9.000E+00
      21     1     1     2   511   515  7.774463784E+00 -4.311876359E+01 -4.832130426E+01  6.522743676E+01  1.348699152E-06  0.00000E+00  9.000E+00
</event>
<event>
      5  10001  2.02673E+08  4.37040E+01 -1.00000E+00  1.42464E-01
      21    -1     0     0   513   512  0.000000000E+00  0.000000000E+00  8.862256360E+02  8.862256360E+02  0.000000000E+00  0.00000E+00  9.000E+00
      21    -1     0     0   516   515  0.000000000E+00  0.000000000E+00 -1.391956777E+00  1.391956777E+00  0.000000000E+00  0.00000E+00  9.000E+00
      21     1     1     2   513   515  1.413499291E+01 -1.524047360E+01  9.161526645E+01  9.394374438E+01  0.000000000E+00  0.00000E+00  9.000E+00
      21     1     1     2   514   512 -3.819533471E+00  2.329159587E+00  3.624315790E+01  3.651821894E+01  6.743495762E-07  0.00000E+00  9.000E+00
      21     1     1     2   516   514 -1.031545944E+01  1.291131401E+01  7.569752548E+02  7.571556294E+02  1.078959322E-05  0.00000E+00  9.000E+00
</event>
<event>
      5  10001  2.02673E+08  2.09849E+01 -1.00000E+00  1.64624E-01
       1    -1     0     0   511     0  0.000000000E+00  0.000000000E+00  8.689162605E+02  8.689162605E+02  0.000000000E+00  0.00000E+00  9.000E+00
      -4    -1     0     0     0   511  0.000000000E+00  0.000000000E+00 -2.121696709E+01  2.121696709E+01  0.000000000E+00  0.00000E+00  9.000E+00
      -4     1     1     2     0   512  1.342021264E+01  2.992590792E+01 -7.203925734E+00  3.361262588E+01  1.500000000E+00  0.00000E+00  9.000E+00
      21     1     1     2   512   513  1.916438808E-01 -1.348796007E+01  7.025455140E+02  7.026750038E+02  7.629394531E-06  0.00000E+00  9.000E+00
       1     1     1     2   513     0 -1.361185652E+01 -1.643794785E+01  1.523577052E+02  1.538455979E+02  3.300000131E-01  0.00000E+00  9.000E+00
</event>
<event>
      5  10001  2.02673E+08  6.98729E+00 -1.00000E+00  2.15594E-01
       1    -1     0     0   512     0  0.000000000E+00  0.000000000E+00  3.888729277E+01  3.888729277E+01  0.000000000E+00  0.00000E+00  9.000E+00
      21    -1     0     0   513   511  0.000000000E+00  0.000000000E+00 -2.851520532E+01  2.851520532E+01  0.000000000E+00  0.00000E+00  9.000E+00
       3     1     1     2   512     0  1.833272359E+01 -3.149282182E+00 -1.506973586E+01  2.394480469E+01  5.000000000E-01  0.00000E+00  9.000E+00
       1     1     1     2   513     0 -2.512328623E+01 -8.603062145E-01  2.513501993E+01  3.554993340E+01  3.300000131E-01  0.00000E+00  9.000E+00
      -3     1     1     2     0   511  6.790562639E+00  4.009588397E+00  3.068033783E-01  7.907760010E+00  5.000000000E-01  0.00000E+00  9.000E+00
</event>
<event>
      5  10001  2.02673E+08  7.18878E+00 -1.00000E+00  2.13863E-01
      21    -1     0     0   514   512  0.000000000E+00  0.000000000E+00  8.272953441E+01  8.272953441E+01  0.000000000E+00  0.00000E+00  9.000E+00
       2    -1     0     0   515     0  0.000000000E+00  0.000000000E+00 -1.050380822E+01  1.050380822E+01  0.000000000E+00  0.00000E+00  9.000E+00
      21     1     1     2   515   513 -8.426753431E-01 -2.047523586E+01  1.476948980E+01  2.526030907E+01  6.743495762E-07  0.00000E+00  9.000E+00
       2     1     1     2   514     0 -1.121835168E-02  2.761288319E+01  3.617549573E+01  4.551095292E+01  3.300000131E-01  0.00000E+00  9.000E+00
      21     1     1     2   513   512  8.538936948E-01 -7.137647335E+00  2.128074065E+01  2.246208064E+01  2.384185791E-07  0.00000E+00  9.000E+00
</event>
<event>
      5  10001  2.02673E+08  9.30689E+00 -1.00000E+00  1.99373E-01
      21    -1     0     0   514   515  0.000000000E+00  0.000000000E+00  1.887293007E+02  1.887293007E+02  0.000000000E+00  0.00000E+00  9.000E+00
      21    -1     0     0   513   512  0.000000000E+00  0.000000000E+00 -2.170012903E+01  2.170012903E+01  0.000000000E+00  0.00000E+00  9.000E+00
      21     1     1     2   511   512 -2.979789272E+01  6.034652253E+00 -6.303921220E+00  3.104949051E+01  6.419616708E-07  0.00000E+00  9.000E+00
      21     1     1     2   513   515  3.120448427E+01  3.165328533E+00  8.579245485E+01  9.134596024E+01  1.348699152E-06  0.00000E+00  9.000E+00
      21     1     1     2   514   511 -1.406591555E+00 -9.199980786E+00  8.754063808E+01  8.803397901E+01  9.536743164E-07  0.00000E+00  9.000E+00
</event>
<event>
      5  10001  2.02673E+08  5.88538E+00 -1.00000E+00  2.26701E-01
      21    -1     0     0   513   512  0.000000000E+00  0.000000000E+00  2.146072217E+01  2.146072217E+01  0.000000000E+00  0.00000E+00  9.000E+00
      21    -1     0     0   517   516  0.000000000E+00  0.000000000E+00 -7.382012992E+01  7.382012992E+01  0.000000000E+00  0.00000E+00  9.000E+00
      21     1     1     2   517   511 -1.223045091E+01 -1.461838155E+01 -6.149002971E+01  6.437627484E+01  0.000000000E+00  0.00000E+00  9.000E+00
      21     1     1     2   511   512  1.810688480E+01  1.429404523E+01  4.712539282E+00  2.354542487E+01  7.372687386E-07  0.00000E+00  9.000E+00
      21     1     1     2   513   516 -5.876433881E+00  3.243363200E-01  4.418082678E+00  7.359152380E+00  1.685873940E-07  0.00000E+00  9.000E+00
</event>
<event>
      5  10001  2.02673E+08  7.53750E+00 -1.00000E+00  2.11042E-01
       1    -1     0     0   511     0  0.000000000E+00  0.000000000E+00  1.313120493E+02  1.313120493E+02  0.000000000E+00  0.00000E+00  9.000E+00
      21    -1     0     0   512   514  0.000000000E+00  0.000000000E+00 -8.495722261E+02  8.495722261E+02  0.000000000E+00  0.00000E+00  9.000E+00
      21     1     1     2   511   514 -1.771551757E+01 -9.603452837E+00 -2.270241181E+01  3.035564809E+01  1.168007728E-06  0.00000E+00  9.000E+00
       1     1     1     2   513     0  2.523804350E+01  1.007836724E+01  1.260194654E+02  1.289168215E+02  3.300000131E-01  0.00000E+00  9.000E+00
      21     1     1     2   512   513 -7.522525927E+00 -4.749144053E-01 -8.215772304E+02  8.216118058E+02  0.000000000E+00  0.00000E+00  9.000E+00
</event>
<event>
      5  10001  2.02673E+08  9.43311E+00 -1.00000E+00  1.98673E-01
      21    -1     0     0   515   513  0.000000000E+00  0.000000000E+00  1.292410993E+01  1.292410993E+01  0.000000000E+00  0.00000E+00  9.000E+00
      21    -1     0     0   512   515  0.000000000E+00  0.000000000E+00 -7.075272402E+01  7.075272402E+01  0.000000000E+00  0.00000E+00  9.000E+00
      21     1     1     2   512   516  1.810599682E+01 -1.923033988E+01 -3.613683771E+01  4.476051979E+01  4.768371582E-07  0.00000E+00  9.000E+00
      21     1     1     2   511   513 -1.322734919E+01  2.245455012E+01 -1.993233883E+01  3.280956749E+01  2.384185791E-07  0.00000E+00  9.000E+00
      21     1     1     2   516   511 -4.878647627E+00 -3.224210239E+00 -1.759437550E+00  6.106746665E+00  9.185692672E-08  0.00000E+00  9.000E+00
</event>
<event>
      5  10001  2.02673E+08  9.17187E+00 -1.00000E+00  2.00138E-01
      -1    -1     0     0     0   514  0.000000000E+00  0.000000000E+00  2.466775364E+01  2.466775364E+01  0.000000000E+00  0.00000E+00  9.000E+00
      21    -1     0     0   513   512  0.000000000E+00  0.000000000E+00 -5.885573145E+01  5.885573145E+01  0.000000000E+00  0.00000E+00  9.000E+00
      -1     1     1     2     0   511  9.316645470E+00 -1.596808721E+01 -5.814487865E+00  1.938290125E+01  3.300000131E-01  0.00000E+00  9.000E+00
      21     1     1     2   513   514 -1.830418599E+01  1.779587775E+01  7.901625974E+00  2.672400012E+01  5.397430145E-07  0.00000E+00  9.000E+00
      21     1     1     2   511   512  8.987540518E+00 -1.827790542E+00 -3.627511592E+01  3.741658372E+01  4.768371582E-07  0.00000E+00  9.000E+00
</event>
<event>
      5  10001  2.02673E+08  9.03690E+00 -1.00000E+00  2.00921E-01
       2    -1     0     0   513     0  0.000000000E+00  0.000000000E+00  8.557665328E+01  8.557665328E+01  0.000000000E+00  0.00000E+00  9.000E+00
      21    -1     0     0   511   512  0.000000000E+00  0.000000000E+00 -8.255536360E+01  8.255536360E+01  0.000000000E+00  0.00000E+00  9.000E+00
      21     1     1     2   511   515 -1.690267027E+01  5.405617487E+00 -7.299739577E+01  7.512350332E+01  1.348699152E-06  0.00000E+00  9.000E+00
       2     1     1     2   515     0  2.294349019E+01 -1.212664072E+01  1.242165752E+01  2.877265425E+01  3.300000131E-01  0.00000E+00  9.000E+00
      21     1     1     2   513   512 -6.040819925E+00  6.721023228E+00  6.359702793E+01  6.423585930E+01  6.743495762E-07  0.00000E+00  9.000E+00
</event>
<event>
      5  10001  2.02673E+08  3.54243E+01 -1.00000E+00  1.48157E-01
      21    -1     0     0   511   514  0.000000000E+00  0.000000000E+00  3.764298398E+01  3.764298398E+01  0.000000000E+00  0.00000E+00  9.000E+00
      -1    -1     0     0     0   512  0.000000000E+00  0.000000000E+00 -2.594737176E+01  2.594737176E+01  0.000000000E+00  0.00000E+00  9.000E+00
      21     1     1     2   515   514 -8.211224887E+00 -6.258658733E+00  2.630580298E+01  2.825933994E+01  3.371747881E-07  0.00000E+00  9.000E+00
      21     1     1     2   511   512  6.863486467E+00  1.702349989E+01 -1.654231618E+00  1.842941880E+01  1.192092896E-07  0.00000E+00  9.000E+00
      -1     1     1     2     0   515  1.347738420E+00 -1.076484116E+01 -1.295595914E+01  1.690159701E+01  3.300000131E-01  0.00000E+00  9.000E+00
</event>
<event>
      5  10001  2.02673E+08  1.51698E+01 -1.00000E+00  1.76877E-01
       2    -1     0     0   516     0  0.000000000E+00  0.000000000E+00  7.536645679E+02  7.536645679E+02  0.000000000E+00  0.00000E+00  9.000E+00
       1    -1     0     0   514     0  0.000000000E+00  0.000000000E+00 -5.361199952E+02  5.361199952E+02  0.000000000E+00  0.00000E+00  9.000E+00
      21     1     1     2   516   513 -2.097580032E+01 -2.416752485E+01 -4.606701523E+01  5.609120563E+01  1.651812370E-06  0.00000E+00  9.000E+00
       1     1     1     2   513     0  9.592948270E+00  3.419519508E+01 -4.843136580E+02  4.856142134E+02  3.300000131E-01  0.00000E+00  9.000E+00
       2     1     1     2   514     0  1.138285205E+01 -1.002767023E+01  7.479252459E+02  7.480791441E+02  3.300000131E-01  0.00000E+00  9.000E+00
</event>
<event>
      5  10001  2.02673E+08  1.87581E+01 -1.00000E+00  1.68657E-01
      21    -1     0     0   511   513  0.000000000E+00  0.000000000E+00  7.902764458E+01  7.902764458E+01  0.000000000E+00  0.00000E+00  9.000E+00
      21    -1     0     0   514   512  0.000000000E+00  0.000000000E+00 -8.285368694E+00  8.285368694E+00  0.000000000E+00  0.00000E+00  9.000E+00
      21     1     1     2   511   512  6.718136959E+00  1.910257636E+01  1.940238200E+01  2.804450418E+01  5.840038640E-07  0.00000E+00  9.000E+00
      21     1     1     2   514   515 -1.134419517E+01 -1.219326277E+01  1.647689962E+01  2.342764696E+01  4.768371582E-07  0.00000E+00  9.000E+00
      21     1     1     2   515   513  4.626058213E+00 -6.909313581E+00  3.486299427E+01  3.584086213E+01  6.743495762E-07  0.00000E+00  9.000E+00
</event>
<event>
      5  10001  2.02673E+08  1.94240E+01 -1.00000E+00  1.67381E-01
       2    -1     0     0   512     0  0.000000000E+00  0.000000000E+00  4.334750914E+02  4.334750914E+02  0.000000000E+00  0.00000E+00  9.000E+00
      21    -1     0     0   515   516  0.000000000E+00  0.000000000E+00 -5.180238191E+00  5.180238191E+00  0.000000000E+00  0.00000E+00  9.000E+00
      21     1     1     2   512   516  4.145362789E+01  2.507391103E+00  3.005298771E+02  3.033857237E+02  3.814697266E-06  0.00000E+00  9.000E+00
      21     1     1     2   515   511 -1.611079492E+01  6.704016746E+00  4.863487225E+01  5.167061401E+01  6.743495762E-07  0.00000E+00  9.000E+00
       2     1     1     2   511     0 -2.534283297E+01 -9.211407849E+00  7.913010381E+01  8.359899190E+01  3.300000131E-01  0.00000E+00  9.000E+00
</event>
<event>
      5  10001  2.02673E+08  4.36419E+00 -1.00000E+00  2.54760E-01
      21    -1     0     0   513   515  0.000000000E+00  0.000000000E+00  1.377311810E+01  1.377311810E+01  0.000000000E+00  0.00000E+00  9.000E+00
      21    -1     0     0   517   514  0.000000000E+00  0.000000000E+00 -1.117931739E+02  1.117931739E+02  0.000000000E+00  0.00000E+00  9.000E+00
      21     1     1     2   513   514 -1.448827688E+01  2.190033224E+01 -9.267773071E+01  9.632599072E+01  0.000000000E+00  0.00000E+00  9.000E+00
      21     1     1     2   517   512  1.146320727E+01 -1.804771536E+01  7.859851590E-01  2.139492751E+01  7.049367531E-07  0.00000E+00  9.000E+00
      21     1     1     2   512   515  3.025069603E+00 -3.852616887E+00 -6.128310263E+00  7.845373774E+00  8.429369702E-08  0.00000E+00  9.000E+00
</event>
<event>
      5  10001  2.02673E+08  9.19655E+00 -1.00000E+00  1.99997E-01
      21    -1     0     0   511   514  0.000000000E+00  0.000000000E+00  2.187156934E+01  2.187156934E+01  0.000000000E+00  0.00000E+00  9.000E+00
      21    -1     0     0   516   515  0.000000000E+00  0.000000000E+00 -3.235282191E+01  3.235282191E+01  0.000000000E+00  0.00000E+00  9.000E+00
      21     1     1     2   511   515  7.628618880E+00 -2.116783217E+01  6.180352321E+00  2.333387451E+01  2.064765462E-07  0.00000E+00  9.000E+00
      21     1     1     2   516   513 -3.612931478E+00  1.825672151E+01 -6.731721840E+00  1.979083710E+01  0.000000000E+00  0.00000E+00  9.000E+00
      21     1     1     2   513   514 -4.015687402E+00  2.911110664E+00 -9.929883051E+00  1.109967964E+01  1.685873940E-07  0.00000E+00  9.000E+00
</event>
<event>
      5  10001  2.02673E+08  6.33753E+00 -1.00000E+00  2.21767E-01
      21    -1     0     0   512   511  0.000000000E+00  0.000000000E+00  8.197167453E+00  8.197167453E+00  0.000000000E+00  0.00000E+00  9.000E+00
      21    -1     0     0   517   514  0.000000000E+00  0.000000000E+00 -1.090919278E+02  1.090919278E+02  0.000000000E+00  0.00000E+00  9.000E+00
      21     1     1     2   512   514  2.359588943E+01 -4.290943788E+00 -3.946470621E+01  4.618052872E+01  8.259061849E-07  0.00000E+00  9.000E+00
      21     1     1     2   517   515 -1.733731362E+01  3.293681568E+00 -6.226383170E+01  6.471642388E+01  1.168007728E-06  0.00000E+00  9.000E+00
      21     1     1     2   515   511 -6.258575807E+00  9.972622196E-01  8.337775347E-01  6.392142680E+00  1.173318606E-07  0.00000E+00  9.000E+00
</event>
<event>
      5  10001  2.02673E+08  1.31009E+01 -1.00000E+00  1.83056E-01
       4    -1     0     0   514     0  0.000000000E+00  0.000000000E+00  1.214000644E+02  1.214000644E+02  0.000000000E+00  0.00000E+00  9.000E+00
      21    -1     0     0   513   515  0.000000000E+00  0.000000000E+00 -1.494011535E+01  1.494011535E+01  0.000000000E+00  0.00000E+00  9.000E+00
      21     1     1     2   514   515 -7.100105504E+00  2.630933818E+01  1.824925496E+00  2.731159326E+01  3.619479478E-07  0.00000E+00  9.000E+00
       4     1     1     2   512     0  4.130039954E+00 -8.658483503E+00  6.249529496E+01  6.324506667E+01  1.500000000E+00  0.00000E+00  9.000E+00
      21     1     1     2   513   512  2.970065549E+00 -1.765085467E+01  4.213972859E+01  4.578351981E+01  4.768371582E-07  0.00000E+00  9.000E+00
</event>
<event>
      5  10001  2.02673E+08  8.54088E+00 -1.00000E+00  2.03960E-01
      21    -1     0     0   514   512  0.000000000E+00  0.000000000E+00  2.688413700E+01  2.688413700E+01  0.000000000E+00  0.00000E+00  9.000E+00
       2    -1     0     0   513     0  0.000000000E+00  0.000000000E+00 -4.377862551E+02  4.377862551E+02  0.000000000E+00  0.00000E+00  9.000E+00
      21     1     1     2   513   512  2.632026325E+01  5.006103981E+00 -1.436683477E+02  1.461451726E+02  1.907348633E-06  0.00000E+00  9.000E+00
       2     1     1     2   511     0 -2.366919751E+01  3.112882562E+00 -2.916668327E+02  2.926423946E+02  3.300000131E-01  0.00000E+00  9.000E+00
      21     1     1     2   514   511 -2.651065747E+00 -8.118986543E+00  2.443306229E+01  2.588282490E+01  4.768371582E-07  0.00000E+00  9.000E+00
</event>
<event>
      5  10001  2.02673E+08  2.86279E+01 -1.00000E+00  1.54430E-01
      21    -1     0     0   515   513  0.000000000E+00  0.000000000E+00  4.519004272E+02  4.519004272E+02  0.000000000E+00  0.00000E+00  9.000E+00
      21    -1     0     0   516   515  0.000000000E+00  0.000000000E+00 -1.778349204E+00  1.778349204E+00  0.000000000E+00  0.00000E+00  9.000E+00
      21     1     1     2   511   513  1.360417657E+01 -6.429447762E+00  2.248702604E+02  2.253731249E+02  3.814697266E-06  0.00000E+00  9.000E+00
      21     1     1     2   512   511 -1.717632728E+00  1.399482998E+01  3.811867958E+01  4.064282546E+01  6.743495762E-07  0.00000E+00  9.000E+00
      21     1     1     2   516   512 -1.188654384E+01 -7.565382217E+00  1.871331380E+02  1.876628260E+02  2.697398305E-06  0.00000E+00  9.000E+00
</event>
<event>
      5  10001  2.02673E+08  1.36161E+01 -1.00000E+00  1.81388E-01
      21    -1     0     0   511   512  0.000000000E+00  0.000000000E+00  1.798380631E+01  1.798380631E+01  0.000000000E+00  0.00000E+00  9.000E+00
      21    -1     0     0   516   514  0.000000000E+00  0.000000000E+00 -1.606450894E+02  1.606450894E+02  0.000000000E+00  0.00000E+00  9.000E+00
      21     1     1     2   516   517 -2.679919058E+01 -1.746177193E+01 -1.095221212E+02  1.140973493E+02  1.348699152E-06  0.00000E+00  9.000E+00
      21     1     1     2   517   512  2.534592524E+01  3.100009475E+01 -3.123211987E+01  5.078254732E+01  8.259061849E-07  0.00000E+00  9.000E+00
      21     1     1     2   511   514  1.453265338E+00 -1.353832282E+01 -1.907042006E+00  1.374899902E+01  1.316034923E-07  0.00000E+00  9.000E+00
</event>
<event>
      5  10001  2.02673E+08  1.23403E+01 -1.00000E+00  1.85708E-01
      -3    -1     0     0     0   512  0.000000000E+00  0.000000000E+00  2.709849775E+01  2.709849775E+01  0.000000000E+00  0.00000E+00  9.000E+00
       2    -1     0     0   512     0  0.000000000E+00  0.000000000E+00 -3.918620979E+01  3.918620979E+01  0.000000000E+00  0.00000E+00  9.000E+00
      -3     1     1     2     0   511  2.186270398E+01 -1.822283042E-01  1.689758869E+01  2.763674250E+01  5.000000000E-01  0.00000E+00  9.000E+00
       2     1     1     2   513     0 -9.296937040E+00  5.678041376E+00 -1.814319812E+01  2.116501193E+01  3.300000131E-01  0.00000E+00  9.000E+00
      21     1     1     2   511   513 -1.256576694E+01 -5.495813072E+00 -1.084210262E+01  1.748295311E+01  2.064765462E-07  0.00000E+00  9.000E+00
</event>
<event>
      5  10001  2.02673E+08  1.14679E+01 -1.00000E+00  1.89069E-01
      21    -1     0     0   516   512  0.000000000E+00  0.000000000E+00  2.811181753E+01  2.811181753E+01  0.000000000E+00  0.00000E+00  9.000E+00
      21    -1     0     0   511   515  0.000000000E+00  0.000000000E+00 -1.718040934E+02  1.718040934E+02  0.000000000E+00  0.00000E+00  9.000E+00
      21     1     1     2   514   515  1.253693295E+00 -2.912966424E+01 -1.292098975E+02  1.324586981E+02  1.907348633E-06  0.00000E+00  9.000E+00
      21     1     1     2   511   512  1.395686898E+00  1.797194758E+01 -3.757425438E+01  4.167449381E+01  6.743495762E-07  0.00000E+00  9.000E+00
      21     1     1     2   516   514 -2.649380193E+00  1.115771666E+01  2.309187609E+01  2.578271897E+01  3.371747881E-07  0.00000E+00  9.000E+00
</event>
<event>
      5  10001  2.02673E+08  1.26676E+01 -1.00000E+00  1.84538E-01
      21    -1     0     0   513   514  0.000000000E+00  0.000000000E+00  3.731889255E+02  3.731889255E+02  0.000000000E+00  0.00000E+00  9.000E+00
      21    -1     0     0   511   513  0.000000000E+00  0.000000000E+00 -5.239985632E+00  5.239985632E+00  0.000000000E+00  0.00000E+00  9.000E+00
      -2     1     1     2     0   512  1.895598466E+01 -8.216613904E+00  1.096304279E+02  1.115606638E+02  3.300000131E-01  0.00000E+00  9.000E+00
      21     1     1     2   512   514 -2.718520817E+01 -1.413201800E+00  2.505088930E+02  2.519836069E+02  2.697398305E-06  0.00000E+00  9.000E+00
       2     1     1     2   511     0  8.229223515E+00  9.629815704E+00  7.809618967E+00  1.488464036E+01  3.300000131E-01  0.00000E+00  9.000E+00
</event>
<event>
      5  10001  2.02673E+08  1.03508E+01 -1.00000E+00  1.93985E-01
      21    -1     0     0   515   512  0.000000000E+00  0.000000000E+00  2.638893214E+02  2.638893214E+02  0.000000000E+00  0.00000E+00  9.000E+00
      21    -1     0     0   511   515  0.000000000E+00  0.000000000E+00 -3.226604325E+00  3.226604325E+00  0.000000000E+00  0.00000E+00  9.000E+00
      21     1     1     2   511   516 -6.729616879E+00  1.567558425E+01  2.876818950E+01  3.344578317E+01  3.371747881E-07  0.00000E+00  9.000E+00
      21     1     1     2   516   513  1.171046054E+01 -1.829058648E+01  2.075930386E+02  2.087260168E+02  0.000000000E+00  0.00000E+00  9.000E+00
      21     1     1     2   513   512 -4.980843656E+00  2.615002230E+00  2.430148905E+01  2.494412576E+01  5.840038640E-07  0.00000E+00  9.000E+00
</event>
<event>
      5  10001  2.02673E+08  1.15516E+01 -1.00000E+00  1.88730E-01
      -1    -1     0     0     0   512  0.000000000E+00  0.000000000E+00  8.558981340E+01  8.558981340E+01  0.000000000E+00  0.00000E+00  9.000E+00
       4    -1     0     0   513     0  0.000000000E+00  0.000000000E+00 -5.001691752E+01  5.001691752E+01  0.000000000E+00  0.00000E+00  9.000E+00
      -1     1     1     2     0   514  2.136138560E+01  6.145850681E+00  7.178642437E+01  7.514971656E+01  3.300000131E-01  0.00000E+00  9.000E+00
      21     1     1     2   513   512 -2.941751580E+01 -1.442007719E+01 -1.451948434E+01  3.583495902E+01  2.384185791E-07  0.00000E+00  9.000E+00
       4     1     1     2   514     0  8.056130200E+00  8.274226508E+00 -2.169404414E+01  2.462205534E+01  1.500000000E+00  0.00000E+00  9.000E+00
</event>
<event>
      5  10001  2.02673E+08  3.94956E+01 -1.00000E+00  1.45151E-01
      21    -1     0     0   511   513  0.000000000E+00  0.000000000E+00  1.964351450E+00  1.964351450E+00  0.000000000E+00  0.00000E+00  9.000E+00
      21    -1     0     0   514   515  0.000000000E+00  0.000000000E+00 -2.493092536E+02  2.493092536E+02  0.000000000E+00  0.00000E+00  9.000E+00
      21     1     1     2   511   515 -9.982678018E-01 -4.005726626E+00 -3.044621047E+01  3.072481271E+01  3.371747881E-07  0.00000E+00  9.000E+00
      21     1     1     2   512   513 -2.044202342E+00 -1.645802008E+00  8.091959938E-01  2.746311275E+00  2.935188354E-07  0.00000E+00  9.000E+00
      21     1     1     2   514   512  3.042470144E+00  5.651528633E+00 -2.177078877E+02  2.178024811E+02  2.697398305E-06  0.00000E+00  9.000E+00
</event>
<event>
      5  10001  2.02673E+08  1.21001E+01 -1.00000E+00  1.86597E-01
      21    -1     0     0   514   511  0.000000000E+00  0.000000000E+00  1.323567139E+01  1.323567139E+01  0.000000000E+00  0.00000E+00  9.000E+00
       4    -1     0     0   513     0  0.000000000E+00  0.000000000E+00 -8.695289063E+01  8.695289063E+01  0.000000000E+00  0.00000E+00  9.000E+00
      21     1     1     2   513   512 -1.629782177E+01 -4.174974468E+00 -3.390161183E+01  3.784664702E+01  6.743495762E-07  0.00000E+00  9.000E+00
       4     1     1     2   514     0  2.084099269E+01  1.538184600E+01 -4.264934952E+01  4.992159029E+01  1.500000000E+00  0.00000E+00  9.000E+00
      21     1     1     2   512   511 -4.543170925E+00 -1.120687153E+01  2.833742113E+00  1.242032471E+01  3.039252468E-07  0.00000E+00  9.000E+00
</event>
<event>
      5  10001  2.02673E+08  3.32566E+01 -1.00000E+00  1.49961E-01
      21    -1     0     0   515   513  0.000000000E+00  0.000000000E+00  3.186882169E+01  3.186882169E+01  0.000000000E+00  0.00000E+00  9.000E+00
      21    -1     0     0   511   515  0.000000000E+00  0.000000000E+00 -4.350495436E+01  4.350495436E+01  0.000000000E+00  0.00000E+00  9.000E+00
      21     1     1     2   516   513  2.003449874E+01  4.092456484E+00  1.299621738E+01  2.422872275E+01  4.129530925E-07  0.00000E+00  9.000E+00
      21     1     1     2   514   516 -1.934467870E+01  1.529546961E+01 -1.839798939E+01  3.076774281E+01  4.768371582E-07  0.00000E+00  9.000E+00
      21     1     1     2   511   514 -6.898200405E-01 -1.938792609E+01 -6.234360658E+00  2.037731048E+01  4.539354507E-07  0.00000E+00  9.000E+00
</event>
<event>
      5  10001  2.02673E+08  1.29754E+01 -1.00000E+00  1.83478E-01
      21    -1     0     0   512   516  0.000000000E+00  0.000000000E+00  5.682744964E+02  5.682744964E+02  0.000000000E+00  0.00000E+00  9.000E+00
      21    -1     0     0   513   512  0.000000000E+00  0.000000000E+00 -1.382662388E+02  1.382662388E+02  0.000000000E+00  0.00000E+00  9.000E+00
      21     1     1     2   514   516  2.913922280E+01 -1.623834912E+01  4.991518501E+02  5.002652774E+02  7.629394531E-06  0.00000E+00  9.000E+00
      21     1     1     2   511   514 -1.744554742E+01  1.061524682E+01  6.672942766E+01  6.978428982E+01  4.046097457E-06  0.00000E+00  9.000E+00
      21     1     1     2   513   511 -1.169367538E+01  5.623102303E+00 -1.358730202E+02  1.364911680E+02  3.814697266E-06  0.00000E+00  9.000E+00
</event>
<event>
      5  10001  2.02673E+08  5.99997E+00 -1.00000E+00  2.25394E-01
      21    -1     0     0   511   514  0.000000000E+00  0.000000000E+00  3.034964990E+00  3.034964990E+00  0.000000000E+00  0.00000E+00  9.000E+00
       2    -1     0     0   514     0  0.000000000E+00  0.000000000E+00 -5.844310111E+02  5.844310111E+02  0.000000000E+00  0.00000E+00  9.000E+00
      21     1     1     2   511   513  6.078150208E+00 -3.535258469E+01 -1.389787670E+02  1.435334345E+02  0.000000000E+00  0.00000E+00  9.000E+00
      21     1     1     2   513   512 -7.714763153E-01  2.310862682E+01 -2.588765287E+02  2.599070236E+02  3.814697266E-06  0.00000E+00  9.000E+00
       2     1     1     2   512     0 -5.306673893E+00  1.224395787E+01 -1.835407505E+02  1.840255180E+02  3.300000131E-01  0.00000E+00  9.000E+00
</event>
<event>
      5  10001  2.02673E+08  5.87396E+00 -1.00000E+00  2.26834E-01
      21    -1     0     0   513   514  0.000000000E+00  0.000000000E+00  8.006257026E+00  8.006257026E+00  0.000000000E+00  0.00000E+00  9.000E+00
       3    -1     0     0   514     0  0.000000000E+00  0.000000000E+00 -1.333123260E+02  1.333123260E+02  0.000000000E+00  0.00000E+00  9.000E+00
      21     1     1     2   513   512 -1.814179318E+01  9.213515538E+00 -7.982782289E+00  2.185722630E+01  0.000000000E+00  0.00000E+00  9.000E+00
       3     1     1     2   511     0  1.281724628E+01 -3.205121576E+00 -9.055543474E+01  9.151552528E+01  5.000000000E-01  0.00000E+00  9.000E+00
      21     1     1     2   512   511  5.324546897E+00 -6.008393962E+00 -2.676785198E+01  2.794583148E+01  3.371747881E-07  0.00000E+00  9.000E+00
</event>
<event>
      5  10001  2.02673E+08  3.95617E+00 -1.00000E+00  2.64493E-01
      21    -1     0     0   515   511  0.000000000E+00  0.000000000E+00  8.991371066E+00  8.991371066E+00  0.000000000E+00  0.00000E+00  9.000E+00
      21    -1     0     0   512   516  0.000000000E+00  0.000000000E+00 -7.139961662E+01  7.139961662E+01  0.000000000E+00  0.00000E+00  9.000E+00
      21     1     1     2   515   516 -2.276062801E+01 -8.894933599E+00 -3.864822604E+01  4.572582866E+01  6.743495762E-07  0.00000E+00  9.000E+00
      21     1     1     2   512   513  1.590470961E+01  9.044469014E+00 -1.853029688E+01  2.604100824E+01  6.307962682E-07  0.00000E+00  9.000E+00
      21     1     1     2   513   511  6.855918397E+00 -1.495354149E-01 -5.229722632E+00  8.624150782E+00  2.457562462E-07  0.00000E+00  9.000E+00
</event>
<event>
      5  10001  2.02673E+08  7.66514E+00 -1.00000E+00  2.10061E-01
       4    -1     0     0   512     0  0.000000000E+00  0.000000000E+00  9.696862343E+01  9.696862343E+01  0.000000000E+00  0.00000E+00  9.000E+00
      21    -1     0     0   513   514  0.000000000E+00  0.000000000E+00 -9.702962190E+01  9.702962190E+01  0.000000000E+00  0.00000E+00  9.000E+00
      21     1     1     2   512   515  1.456075410E+01  1.174404400E+01 -9.067617271E+01  9.258567074E+01  1.348699152E-06  0.00000E+00  9.000E+00
       4     1     1     2   513     0 -1.900775373E+01 -7.340927559E+00  9.261572366E+01  9.484253364E+01  1.500000000E+00  0.00000E+00  9.000E+00
      21     1     1     2   515   514  4.446999626E+00 -4.403116439E+00 -2.000549427E+00  6.570040948E+00  1.154238983E-07  0.00000E+00  9.000E+00
</event>
<event>
      5  10001  2.02673E+08  1.53044E+01 -1.00000E+00  1.76518E-01
      21    -1     0     0   511   513  0.000000000E+00  0.000000000E+00  2.044087062E+00  2.044087062E+00  0.000000000E+00  0.00000E+00  9.000E+00
      21    -1     0     0   516   511  0.000000000E+00  0.000000000E+00 -5.405588463E+02  5.405588463E+02  0.000000000E+00  0.00000E+00  9.000E+00
      21     1     1     2   516   514  2.150050922E+01  2.140157852E+01 -2.120117123E+02  2.141711129E+02  2.697398305E-06  0.00000E+00  9.000E+00
       2     1     1     2   514     0 -1.086053691E+01 -1.766526289E+01 -1.336988518E+02  1.352978368E+02  3.300000131E-01  0.00000E+00  9.000E+00
      -2     1     1     2     0   513 -1.063997231E+01 -3.736315631E+00 -1.928041952E+02  1.931339837E+02  3.300000131E-01  0.00000E+00  9.000E+00
</event>
<event>
      5  10001  2.02673E+08  9.14695E+00 -1.00000E+00  2.00281E-01
      21    -1     0     0   512   514  0.000000000E+00  0.000000000E+00  1.626870870E+01  1.626870870E+01  0.000000000E+00  0.00000E+00  9.000E+00
      21    -1     0     0   513   512  0.000000000E+00  0.000000000E+00 -3.750776911E+01  3.750776911E+01  0.000000000E+00  0.00000E+00  9.000E+00
      21     1     1     2   513   515  2.130317940E+01  3.298521551E+00 -2.069443453E+01  2.988252528E+01  2.384185791E-07  0.00000E+00  9.000E+00
      21     1     1     2   515   511 -1.398240377E+01  2.019403083E+00 -3.157081898E+00  1.447593763E+01  3.153981341E-07  0.00000E+00  9.000E+00
      21     1     1     2   511   514 -7.320775625E+00 -5.317924634E+00  2.612456018E+00  9.418014898E+00  2.064765462E-07  0.00000E+00  9.000E+00
</event>
<event>
      5  10001  2.02673E+08  1.23516E+01 -1.00000E+00  1.85667E-01
      21    -1     0     0   512   513  0.000000000E+00  0.000000000E+00  1.858765542E+00  1.858765542E+00  0.000000000E+00  0.00000E+00  9.000E+00
       1    -1     0     0   513     0  0.000000000E+00  0.000000000E+00 -9.921928014E+02  9.921928014E+02  0.000000000E+00  0.00000E+00  9.000E+00
      21     1     1     2   515   511 -7.018808665E+00 -2.664806486E+01 -1.274818918E+02  1.304262849E+02  4.473129043E-06  0.00000E+00  9.000E+00
       1     1     1     2   511     0  4.186782584E+00  1.462580309E+01 -7.394505301E+02  7.396070840E+02  3.300000131E-01  0.00000E+00  9.000E+00
      21     1     1     2   512   515  2.832026081E+00  1.202226177E+01 -1.234016139E+02  1.240181981E+02  1.348699152E-06  0.00000E+00  9.000E+00
</event>
<event>
      5  10001  2.02673E+08  1.55720E+01 -1.00000E+00  1.75819E-01
      21    -1     0     0   514   516  0.000000000E+00  0.000000000E+00  1.494255142E+02  1.494255142E+02  0.000000000E+00  0.00000E+00  9.000E+00
      21    -1     0     0   513   515  0.000000000E+00  0.000000000E+00 -8.482604010E+01  8.482604010E+01  0.000000000E+00  0.00000E+00  9.000E+00
      21     1     1     2   514   515 -1.021089752E+01 -3.170925837E+01 -7.825295357E+01  8.504859927E+01  1.348699152E-06  0.00000E+00  9.000E+00
      21     1     1     2   513   511 -4.311852775E+00  2.608983968E+01  7.317088921E+01  7.780264030E+01  9.536743164E-07  0.00000E+00  9.000E+00
      21     1     1     2   511   516  1.452275030E+01  5.619418689E+00  6.968153845E+01  7.140031473E+01  9.536743164E-07  0.00000E+00  9.000E+00
</event>
<event>
      5  10001  2.02673E+08  1.58433E+01 -1.00000E+00  1.75128E-01
      21    -1     0     0   512   513  0.000000000E+00  0.000000000E+00  7.448605184E+01  7.448605184E+01  0.000000000E+00  0.00000E+00  9.000E+00
      21    -1     0     0   514   516  0.000000000E+00  0.000000000E+00 -4.726327989E+01  4.726327989E+01  0.000000000E+00  0.00000E+00  9.000E+00
      21     1     1     2   512   516  1.908224056E+01 -9.696246659E+00  6.380144790E+01  6.729616526E+01  0.000000000E+00  0.00000E+00  9.000E+00
      21     1     1     2   517   513 -2.385780258E+01 -5.410162083E+00 -2.115050194E+01  3.233895994E+01  4.129530925E-07  0.00000E+00  9.000E+00
      21     1     1     2   514   517  4.775562014E+00  1.510640874E+01 -1.542817401E+01  2.211420654E+01  3.769728732E-07  0.00000E+00  9.000E+00
</event>
<event>
      5  10001  2.02673E+08  1.83828E+01 -1.00000E+00  1.69405E-01
      21    -1     0     0   511   516  0.000000000E+00  0.000000000E+00  2.840334243E+01  2.840334243E+01  0.000000000E+00  0.00000E+00  9.000E+00
      21    -1     0     0   514   511  0.000000000E+00  0.000000000E+00 -8.776960950E+01  8.776960950E+01  0.000000000E+00  0.00000E+00  9.000E+00
      21     1     1     2   514   515 -1.447452703E+01  1.319716614E+01 -8.095523642E+01  8.329122061E+01  0.000000000E+00  0.00000E+00  9.000E+00
      21     1     1     2   515   512  8.366692816E+00 -1.166849771E+01  5.109037297E+00  1.524000162E+01  1.884864366E-07  0.00000E+00  9.000E+00
      21     1     1     2   512   516  6.107834216E+00 -1.528668429E+00  1.647993205E+01  1.764172969E+01  3.371747881E-07  0.00000E+00  9.000E+00
</event>
<event>
      5  10001  2.02673E+08  1.04270E+01 -1.00000E+00  1.93624E-01
      21    -1     0     0   513   511  0.000000000E+00  0.000000000E+00  3.229138709E+02  3.229138709E+02  0.000000000E+00  0.00000E+00  9.000E+00
      21    -1     0     0   514   516  0.000000000E+00  0.000000000E+00 -3.554464872E+00  3.554464872E+00  0.000000000E+00  0.00000E+00  9.000E+00
      21     1     1     2   513   516 -6.906169086E+00  3.039295112E+01  2.023037362E+02  2.046905672E+02  3.814697266E-06  0.00000E+00  9.000E+00
      21     1     1     2   514   515  7.107958071E+00 -1.996786909E+01  5.678258029E+01  6.060940759E+01  1.168007728E-06  0.00000E+00  9.000E+00
      21     1     1     2   515   511 -2.017889850E-01 -1.042508203E+01  6.027308957E+01  6.116836094E+01  6.743495762E-07  0.00000E+00  9.000E+00
</event>
<event>
      5  10001  2.02673E+08  2.54334E+01 -1.00000E+00  1.58156E-01
      21    -1     0     0   512   511  0.000000000E+00  0.000000000E+00  7.877290633E+00  7.877290633E+00  0.000000000E+00  0.00000E+00  9.000E+00
       1    -1     0     0   514     0  0.000000000E+00  0.000000000E+00 -1.304199803E+02  1.304199803E+02  0.000000000E+00  0.00000E+00  9.000E+00
      21     1     1     2   514   513  4.998809296E+00  1.499789894E+01 -9.341885479E+01  9.474707118E+01  1.348699152E-06  0.00000E+00  9.000E+00
       1     1     1     2   512     0 -1.665688867E+01 -7.948660642E+00 -1.380939573E+01  2.305301405E+01  3.300000131E-01  0.00000E+00  9.000E+00
      21     1     1     2   513   511  1.165807938E+01 -7.049238303E+00 -1.531443915E+01  2.049718571E+01  5.057621821E-07  0.00000E+00  9.000E+00
</event>
<event>
      5  10001  2.02673E+08  1.60587E+01 -1.00000E+00  1.74592E-01
      21    -1     0     0   515   511  0.000000000E+00  0.000000000E+00  1.838333155E+01  1.838333155E+01  0.000000000E+00  0.00000E+00  9.000E+00
       4    -1     0     0   512     0  0.000000000E+00  0.000000000E+00 -1.953113812E+02  1.953113812E+02  0.000000000E+00  0.00000E+00  9.000E+00
      21     1     1     2   512   511  1.713072536E+01 -8.444033536E+00  1.038434731E+01  2.173932204E+01  3.953724850E-07  0.00000E+00  9.000E+00
       4     1     1     2   514     0 -1.182800615E+01  1.719391534E+01 -1.735491582E+02  1.748058716E+02  1.500000000E+00  0.00000E+00  9.000E+00
      21     1     1     2   515   514 -5.302719208E+00 -8.749881809E+00 -1.376323879E+01  1.714951908E+01  1.685873940E-07  0.00000E+00  9.000E+00
</event>
<event>
      5  10001  2.02673E+08  7.25805E+00 -1.00000E+00  2.13285E-01
      21    -1     0     0   517   512  0.000000000E+00  0.000000000E+00  9.647577039E+00  9.647577039E+00  0.000000000E+00  0.00000E+00  9.000E+00
      21    -1     0     0   511   516  0.000000000E+00  0.000000000E+00 -2.297300421E+02  2.297300421E+02  0.000000000E+00  0.00000E+00  9.000E+00
      21     1     1     2   513   516  1.725047536E+01  5.714089875E+00 -1.421222770E+01  2.306983180E+01  8.760057960E-07  0.00000E+00  9.000E+00
      21     1     1     2   511   512 -2.436481937E+01 -4.276951140E+00 -2.074168555E+02  2.088867843E+02  2.697398305E-06  0.00000E+00  9.000E+00
      21     1     1     2   517   513  7.114344009E+00 -1.437138735E+00  1.546618089E+00  7.421003027E+00  7.300048300E-08  0.00000E+00  9.000E+00
</event>
<event>
      5  10001  2.02673E+08  1.85423E+01 -1.00000E+00  1.69084E-01
       1    -1     0     0   514     0  0.000000000E+00  0.000000000E+00  5.617604942E+02  5.617604942E+02  0.000000000E+00  0.00000E+00  9.000E+00
      21    -1     0     0   515   513  0.000000000E+00  0.000000000E+00 -3.157689269E+01  3.157689269E+01  0.000000000E+00  0.00000E+00  9.000E+00
      21     1     1     2   514   513 -6.858096251E+00 -4.303435008E+01  2.998978689E+01  5.289967948E+01  7.539457465E-07  0.00000E+00  9.000E+00
      21     1     1     2   515   511  2.141647483E+01  3.155097067E+01 -1.729173459E+00  3.817223055E+01  7.791469373E-07  0.00000E+00  9.000E+00
       1     1     1     2   511     0 -1.455837858E+01  1.148337941E+01  5.019229881E+02  5.022654769E+02  3.300000131E-01  0.00000E+00  9.000E+00
</event>
<event>
      5  10001  2.02673E+08  4.21588E+00 -1.00000E+00  2.58101E-01
      21    -1     0     0   512   514  0.000000000E+00  0.000000000E+00  8.416639194E+02  8.416639194E+02  0.000000000E+00  0.00000E+00  9.000E+00
      21    -1     0     0   517   516  0.000000000E+00  0.000000000E+00 -1.838129649E+01  1.838129649E+01  0.000000000E+00  0.00000E+00  9.000E+00
      21     1     1     2   512   516  1.183287087E+01  1.659268153E+01  7.676610157E+00  2.177760908E+01  1.460009660E-07  0.00000E+00  9.000E+00
      21     1     1     2   517   513 -8.436123965E+00 -1.908983243E+01 -1.709995677E+00  2.094072527E+01  1.548574097E-07  0.00000E+00  9.000E+00
      21     1     1     2   513   514 -3.396746909E+00  2.497150897E+00  8.173160085E+02  8.173268816E+02  1.078959322E-05  0.00000E+00  9.000E+00
</event>
<event>
      5  10001  2.02673E+08  2.31716E+00 -1.00000E+00  3.35473E-01
      -2    -1     0     0     0   511  0.000000000E+00  0.000000000E+00  7.068715651E+00  7.068715651E+00  0.000000000E+00  0.00000E+00  9.000E+00
      21    -1     0     0   512   515  0.000000000E+00  0.000000000E+00 -4.695226315E+02  4.695226315E+02  0.000000000E+00  0.00000E+00  9.000E+00
      -2     1     1     2     0   513  2.281322456E+01 -3.094322733E+00 -2.742982829E+01  3.581232230E+01  3.300000131E-01  0.00000E+00  9.000E+00
      21     1     1     2   512   511 -2.189551712E+01  9.666711727E-01 -3.890869110E+01  4.465685128E+01  4.768371582E-07  0.00000E+00  9.000E+00
      21     1     1     2   513   515 -9.177074422E-01  2.127651561E+00 -3.961153964E+02  3.961221736E+02  5.394796609E-06  0.00000E+00  9.000E+00
</event>
<event>
      5  10001  2.02673E+08  3.42969E+01 -1.00000E+00  1.49076E-01
      21    -1     0     0   514   512  0.000000000E+00  0.000000000E+00  3.586461036E+01  3.586461036E+01  0.000000000E+00  0.00000E+00  9.000E+00
      21    -1     0     0   513   516  0.000000000E+00  0.000000000E+00 -1.017323157E+02  1.017323157E+02  0.000000000E+00  0.00000E+00  9.000E+00
      21     1     1     2   514   516  1.167059850E+01 -2.656691528E+01 -8.016499113E+01  8.525508583E+01  9.536743164E-07  0.00000E+00  9.000E+00
      21     1     1     2   513   511 -2.410137443E+01  6.084489779E+00  1.368272955E+01  2.837453706E+01  6.078504936E-07  0.00000E+00  9.000E+00
      21     1     1     2   511   512  1.243077593E+01  2.048242550E+01  6.145561986E-01  2.396730322E+01  2.263554563E-07  0.00000E+00  9.000E+00
</event>
<event>
      5  10001  2.02673E+08  1.57899E+01 -1.00000E+00  1.75263E-01
      21    -1     0     0   515   513  0.000000000E+00  0.000000000E+00  9.718664906E+01  9.718664906E+01  0.000000000E+00  0.00000E+00  9.000E+00
      -1    -1     0     0     0   512  0.000000000E+00  0.000000000E+00 -1.377751500E+02  1.377751500E+02  0.000000000E+00  0.00000E+00  9.000E+00
      21     1     1     2   515   512  2.595894371E+01 -1.481060406E+01 -4.342251200E+00  3.020059431E+01  7.077659420E-07  0.00000E+00  9.000E+00
      21     1     1     2   517   513 -3.443950899E+01  1.491480347E+00  8.017604340E+01  8.727257432E+01  9.536743164E-07  0.00000E+00  9.000E+00
      -1     1     1     2     0   517  8.480565286E+00  1.331912372E+01 -1.164222931E+02  1.174886304E+02  3.300000131E-01  0.00000E+00  9.000E+00
</event>
<event>
      5  10001  2.02673E+08  1.16601E+01 -1.00000E+00  1.88296E-01
      21    -1     0     0   511   512  0.000000000E+00  0.000000000E+00  5.608132279E+01  5.608132279E+01  0.000000000E+00  0.00000E+00  9.000E+00
      21    -1     0     0   516   514  0.000000000E+00  0.000000000E+00 -1.249937619E+02  1.249937619E+02  0.000000000E+00  0.00000E+00  9.000E+00
      21     1     1     2   511   514  2.137174400E+01 -1.375441497E+01 -1.182558524E+02  1.209561160E+02  1.907348633E-06  0.00000E+00  9.000E+00
      21     1     1     2   516   513 -1.329408309E+01  3.644400938E+00  4.401706350E+01  4.612500605E+01  1.784161275E-06  0.00000E+00  9.000E+00
      21     1     1     2   513   512 -8.077660911E+00  1.011001403E+01  5.326349760E+00  1.399396267E+01  2.731427965E-07  0.00000E+00  9.000E+00
</event>
<event>
      5  10001  2.02673E+08  1.38691E+01 -1.00000E+00  1.80602E-01
       2    -1     0     0   511     0  0.000000000E+00  0.000000000E+00  5.076583555E+02  5.076583555E+02  0.000000000E+00  0.00000E+00  9.000E+00
       4    -1     0     0   513     0  0.000000000E+00  0.000000000E+00 -6.608405265E+01  6.608405265E+01  0.000000000E+00  0.00000E+00  9.000E+00
       2     1     1     2   513     0  3.677447630E+00  2.537526995E+01  4.968118719E+02  4.974731881E+02  3.300000131E-01  0.00000E+00  9.000E+00
       4     1     1     2   514     0  7.283253153E+00 -1.930300341E+01 -5.953193307E+01  6.302343034E+01  1.500000000E+00  0.00000E+00  9.000E+00
      21     1     1     2   511   514 -1.096070078E+01 -6.072266538E+00  4.294364067E+00  1.324578972E+01  2.230201594E-07  0.00000E+00  9.000E+00
</event>
<event>
      5  10001  2.02673E+08  6.79886E+00 -1.00000E+00  2.17286E-01
      21    -1     0     0   512   513  0.000000000E+00  0.000000000E+00  1.015521763E+02  1.015521763E+02  0.000000000E+00  0.00000E+00  9.000E+00
      21    -1     0     0   515   512  0.000000000E+00  0.000000000E+00 -1.188232712E+01  1.188232712E+01  0.000000000E+00  0.00000E+00  9.000E+00
      21     1     1     2   514   513 -1.841676389E+01  1.414028248E+01  8.482413376E+01  8.794463286E+01  1.348699152E-06  0.00000E+00  9.000E+00
      21     1     1     2   516   514  1.204697979E+01 -1.330910207E+01  6.070682883E+00  1.895033273E+01  3.264680848E-07  0.00000E+00  9.000E+00
      21     1     1     2   515   516  6.369784092E+00 -8.311804091E-01 -1.224967435E+00  6.539537863E+00  2.846862849E-07  0.00000E+00  9.000E+00
</event>
<event>
      5  10001  2.02673E+08  3.63387E+00 -1.00000E+00  2.73579E-01
       2    -1     0     0   515     0  0.000000000E+00  0.000000000E+00  1.207889289E+02  1.207889289E+02  0.000000000E+00  0.00000E+00  9.000E+00
      21    -1     0     0   511   512  0.000000000E+00  0.000000000E+00 -4.328343965E+00  4.328343965E+00  0.000000000E+00  0.00000E+00  9.000E+00
      21     1     1     2   513   512 -6.689816829E+00 -1.448583177E+01  1.997779642E+01  2.556766163E+01  3.371747881E-07  0.00000E+00  9.000E+00
       2     1     1     2   511     0  8.710031698E+00  1.823244768E+01  8.206401252E+01  8.451566631E+01  3.300000131E-01  0.00000E+00  9.000E+00
      21     1     1     2   515   513 -2.020214869E+00 -3.746615912E+00  1.441877599E+01  1.503394493E+01  0.000000000E+00  0.00000E+00  9.000E+00
</event>
<event>
      5  10001  2.02673E+08  4.08149E+00 -1.00000E+00  2.61317E-01
      21    -1     0     0   512   511  0.000000000E+00  0.000000000E+00  2.987397458E+02  2.987397458E+02  0.000000000E+00  0.00000E+00  9.000E+00
      21    -1     0     0   516   513  0.000000000E+00  0.000000000E+00 -2.238972908E+01  2.238972908E+01  0.000000000E+00  0.00000E+00  9.000E+00
      21     1     1     2   514   513 -5.226587591E+00 -1.815591084E+01  4.402852612E+01  4.791101573E+01  8.259061849E-07  0.00000E+00  9.000E+00
      21     1     1     2   516   511  7.890370098E+00  2.124828870E+01 -1.414539401E+01  2.671778218E+01  5.591411304E-07  0.00000E+00  9.000E+00
      21     1     1     2   512   514 -2.663782507E+00 -3.092377858E+00  2.464668846E+02  2.465006770E+02  0.000000000E+00  0.00000E+00  9.000E+00
</event>
<event>
      5  10001  2.02673E+08  2.10019E+01 -1.00000E+00  1.64596E-01
      21    -1     0     0   515   513  0.000000000E+00  0.000000000E+00  3.926177532E+02  3.926177532E+02  0.000000000E+00  0.00000E+00  9.000E+00
      21    -1     0     0   517   514  0.000000000E+00  0.000000000E+00 -1.219078800E+00  1.219078800E+00  0.000000000E+00  0.00000E+00  9.000E+00
      21     1     1     2   515   514  1.436944314E+01 -6.683091170E+00  2.004760555E+02  2.011014506E+02  2.697398305E-06  0.00000E+00  9.000E+00
       2     1     1     2   517     0 -4.098741446E+00  1.287425715E+01  1.251463206E+02  1.258739712E+02  3.300000131E-01  0.00000E+00  9.000E+00
      -2     1     1     2     0   513 -1.027070170E+01 -6.191165976E+00  6.577629831E+01  6.686141017E+01  3.300000131E-01  0.00000E+00  9.000E+00
</event>
<event>
      5  10001  2.02673E+08  1.06156E+01 -1.00000E+00  1.92749E-01
      21    -1     0     0   511   514  0.000000000E+00  0.000000000E+00  5.938077330E+01  5.938077330E+01  0.000000000E+00  0.00000E+00  9.000E+00
       4    -1     0     0   513     0  0.000000000E+00  0.000000000E+00 -1.542186007E+02  1.542186007E+02  0.000000000E+00  0.00000E+00  9.000E+00
      21     1     1     2   511   512 -9.642162391E+00 -1.500207138E+01  5.448397682E+01  5.732832783E+01  9.536743164E-07  0.00000E+00  9.000E+00
      21     1     1     2   513   514  6.276983755E+00  2.506907364E+01 -4.917509590E+01  5.555221899E+01  0.000000000E+00  0.00000E+00  9.000E+00
       4     1     1     2   512     0  3.365178636E+00 -1.006700227E+01 -1.001467083E+02  1.007188271E+02  1.500000000E+00  0.00000E+00  9.000E+00
</event>
<event>
      5  10001  2.02673E+08  2.03245E+01 -1.00000E+00  1.65753E-01
      21    -1     0     0   515   511  0.000000000E+00  0.000000000E+00  3.253077079E+01  3.253077079E+01  0.000000000E+00  0.00000E+00  9.000E+00
       1    -1     0     0   512     0  0.000000000E+00  0.000000000E+00 -5.701840261E+02  5.701840261E+02  0.000000000E+00  0.00000E+00  9.000E+00
      21     1     1     2   512   513 -3.431731014E+01 -1.178688353E+01 -3.246465187E-01  3.628655115E+01  1.558845934E-06  0.00000E+00  9.000E+00
       1     1     1     2   515     0  3.783232611E+01 -8.231341879E+00 -5.437397592E+02  5.451165697E+02  3.300000131E-01  0.00000E+00  9.000E+00
      21     1     1     2   513   511 -3.515015969E+00  2.001822541E+01  6.411150450E+00  2.131167605E+01  2.384185791E-07  0.00000E+00  9.000E+00
</event>
<event>
      5  10001  2.02673E+08  2.17173E+01 -1.00000E+00  1.63430E-01
      21    -1     0     0   512   511  0.000000000E+00  0.000000000E+00  1.046303033E+01  1.046303033E+01  0.000000000E+00  0.00000E+00  9.000E+00
      -5    -1     0     0     0   514  0.000000000E+00  0.000000000E+00 -8.332193823E+01  8.332193823E+01  0.000000000E+00  0.00000E+00  9.000E+00
      -5     1     1     2     0   515 -2.225590187E+00  7.152922084E+00 -3.886583789E+01  3.987117885E+01  4.800000191E+00  0.00000E+00  9.000E+00
      21     1     1     2   512   514 -1.195738805E+01 -1.764695162E+01 -8.584045191E+00  2.297998830E+01  5.196212463E-07  0.00000E+00  9.000E+00
      21     1     1     2   515   511  1.418297824E+01  1.049402953E+01 -2.540902482E+01  3.093380141E+01  4.768371582E-07  0.00000E+00  9.000E+00
</event>
<event>
      5  10001  2.02673E+08  5.62981E+00 -1.00000E+00  2.29773E-01
      21    -1     0     0   512   516  0.000000000E+00  0.000000000E+00  5.111526751E+01  5.111526751E+01  0.000000000E+00  0.00000E+00  9.000E+00
      21    -1     0     0   515   511  0.000000000E+00  0.000000000E+00 -3.908645774E+01  3.908645774E+01  0.000000000E+00  0.00000E+00  9.000E+00
      21     1     1     2   513   511 -1.896835457E+01 -9.765845152E+00 -2.094559832E+01  2.989796474E+01  5.840038640E-07  0.00000E+00  9.000E+00
      21     1     1     2   515   516  2.408982172E+01  7.428049973E+00 -1.613550811E+00  2.526062119E+01  5.971629891E-07  0.00000E+00  9.000E+00
      21     1     1     2   512   513 -5.121467151E+00  2.337795179E+00  3.458795891E+01  3.504313932E+01  0.000000000E+00  0.00000E+00  9.000E+00
</event>
<event>
      5  10001  2.02673E+08  1.81320E+01 -1.00000E+00  1.69918E-01
      21    -1     0     0   514   511  0.000000000E+00  0.000000000E+00  2.153876431E+02  2.153876431E+02  0.000000000E+00  0.00000E+00  9.000E+00
      21    -1     0     0   515   513  0.000000000E+00  0.000000000E+00 -6.848962898E+01  6.848962898E+01  0.000000000E+00  0.00000E+00  9.000E+00
      21     1     1     2   514   513 -2.217298035E+01  1.522291783E+01  6.335549875E+01  6.882802850E+01  0.000000000E+00  0.00000E+00  9.000E+00
      21     1     1     2   517   511  4.647071302E+00 -1.987169239E+01  1.473289982E+02  1.487357157E+02  4.264961200E-06  0.00000E+00  9.000E+00
      21     1     1     2   515   517  1.752590905E+01  4.648774566E+00 -6.378648279E+01  6.631352788E+01  1.348699152E-06  0.00000E+00  9.000E+00
</event>
<event>
      5  10001  2.02673E+08  1.86360E+01 -1.00000E+00  1.68898E-01
      21    -1     0     0   512   511  0.000000000E+00  0.000000000E+00  3.947180346E+00  3.947180346E+00  0.000000000E+00  0.00000E+00  9.000E+00
      21    -1     0     0   511   514  0.000000000E+00  0.000000000E+00 -1.215905440E+02  1.215905440E+02  0.000000000E+00  0.00000E+00  9.000E+00
      -4     1     1     2     0   514 -1.383036686E+01  5.597026880E+00 -3.204326341E+01  3.537833359E+01  1.500000000E+00  0.00000E+00  9.000E+00
       4     1     1     2   513     0  1.242161011E+01 -1.135900752E+01 -3.160291477E+01  3.583737814E+01  1.500000000E+00  0.00000E+00  9.000E+00
      21     1     1     2   512   513  1.408756755E+00  5.761980643E+00 -5.399718551E+01  5.432201266E+01  0.000000000E+00  0.00000E+00  9.000E+00
</event>
<event>
      5  10001  2.02673E+08  1.15305E+01 -1.00000E+00  1.88815E-01
      21    -1     0     0   515   513  0.000000000E+00  0.000000000E+00  2.026340582E+01  2.026340582E+01  0.000000000E+00  0.00000E+00  9.000E+00
      21    -1     0     0   511   514  0.000000000E+00  0.000000000E+00 -1.457327314E+02  1.457327314E+02  0.000000000E+00  0.00000E+00  9.000E+00
      21     1     1     2   511   516 -2.817561757E+01 -3.851795236E+00 -1.013031463E+02  1.052189584E+02  1.348699152E-06  0.00000E+00  9.000E+00
      21     1     1     2   516   513  1.696429386E+01  1.157711020E+00  1.329325688E+01  2.158328611E+01  1.685873940E-07  0.00000E+00  9.000E+00
      21     1     1     2   515   514  1.121132372E+01  2.694084216E+00 -3.745943620E+01  3.919389276E+01  4.768371582E-07  0.00000E+00  9.000E+00
</event>
<event>
      5  10001  2.02673E+08  6.35241E+00 -1.00000E+00  2.21614E-01
      21    -1     0     0   512   514  0.000000000E+00  0.000000000E+00  2.108651435E+01  2.108651435E+01  0.000000000E+00  0.00000E+00  9.000E+00
      21    -1     0     0   511   517  0.000000000E+00  0.000000000E+00 -1.116328873E+02  1.116328873E+02  0.000000000E+00  0.00000E+00  9.000E+00
      21     1     1     2   512   517 -2.493911130E+01 -5.044788358E+00 -1.010624585E+02  1.042162639E+02  1.907348633E-06  0.00000E+00  9.000E+00
      21     1     1     2   513   514  1.128535437E+01  3.725577751E+00  8.561754920E+00  1.464727961E+01  7.052516679E-07  0.00000E+00  9.000E+00
      21     1     1     2   511   513  1.365375694E+01  1.319210608E+00  1.954330592E+00  1.385585808E+01  3.740161776E-07  0.00000E+00  9.000E+00
</event>
<event>
      5  10001  2.02673E+08  5.04540E+00 -1.00000E+00  2.37745E-01
      -2    -1     0     0     0   514  0.000000000E+00  0.000000000E+00  8.953377581E+00  8.953377581E+00  0.000000000E+00  0.00000E+00  9.000E+00
      21    -1     0     0   515   512  0.000000000E+00  0.000000000E+00 -1.004818022E+02  1.004818022E+02  0.000000000E+00  0.00000E+00  9.000E+00
      -2     1     1     2     0   511 -2.299507758E+01  1.199415000E+00 -1.264514314E+01  2.627205234E+01  3.300000131E-01  0.00000E+00  9.000E+00
      21     1     1     2   511   512  1.804642065E+01 -2.181904030E+00 -7.378226369E+01  7.598852834E+01  1.348699152E-06  0.00000E+00  9.000E+00
      21     1     1     2   515   514  4.948656922E+00  9.824890301E-01 -5.101017831E+00  7.174599148E+00  8.429369702E-08  0.00000E+00  9.000E+00
</event>
<event>
      5  10001  2.02673E+08  7.58652E+00 -1.00000E+00  2.10662E-01
      21    -1     0     0   512   514  0.000000000E+00  0.000000000E+00  2.789524721E+02  2.789524721E+02  0.000000000E+00  0.00000E+00  9.000E+00
      -2    -1     0     0     0   513  0.000000000E+00  0.000000000E+00 -4.485613129E+01  4.485613129E+01  0.000000000E+00  0.00000E+00  9.000E+00
      -2     1     1     2     0   514  2.249759347E+01 -3.817014322E-01 -4.149262381E+01  4.720205651E+01  3.300000131E-01  0.00000E+00  9.000E+00
      21     1     1     2   512   511 -8.187126810E+00  2.497440238E+00  1.362704577E+02  1.365390196E+02  0.000000000E+00  0.00000E+00  9.000E+00
      21     1     1     2   511   513 -1.431046666E+01 -2.115738805E+00  1.393185069E+02  1.400675272E+02  3.303624740E-06  0.00000E+00  9.000E+00
</event>
<event>
      5  10001  2.02673E+08  1.94208E+01 -1.00000E+00  1.67387E-01
      21    -1     0     0   515   513  0.000000000E+00  0.000000000E+00  6.384227989E+01  6.384227989E+01  0.000000000E+00  0.00000E+00  9.000E+00
      21    -1     0     0   514   516  0.000000000E+00  0.000000000E+00 -4.919985850E+01  4.919985850E+01  0.000000000E+00  0.00000E+00  9.000E+00
      21     1     1     2   515   516 -1.912346602E+01  4.915202038E+00  5.876369757E+01  6.199224400E+01  6.743495762E-07  0.00000E+00  9.000E+00
      -5     1     1     2     0   513  1.084353041E+01  2.442130052E-01 -1.095173326E+01  1.614379927E+01  4.800000191E+00  0.00000E+00  9.000E+00
       5     1     1     2   514     0  8.279935613E+00 -5.159415043E+00 -3.316954292E+01  3.490609512E+01  4.800000191E+00  0.00000E+00  9.000E+00
</event>
<event>
      5  10001  2.02673E+08  7.62520E+00 -1.00000E+00  2.10365E-01
      21    -1     0     0   511   513  0.000000000E+00  0.000000000E+00  3.206246009E+01  3.206246009E+01  0.000000000E+00  0.00000E+00  9.000E+00
      21    -1     0     0   512   511  0.000000000E+00  0.000000000E+00 -1.691558154E+01  1.691558154E+01  0.000000000E+00  0.00000E+00  9.000E+00
      21     1     1     2   514   513 -6.996516880E+00 -1.828116558E+01  1.962801503E+01  2.772023156E+01  5.840038640E-07  0.00000E+00  9.000E+00
       1     1     1     2   512     0  6.372433929E+00  6.982714848E+00 -1.965056697E+00  9.661085273E+00  3.300000131E-01  0.00000E+00  9.000E+00
      -1     1     1     2     0   514  6.240829518E-01  1.129845073E+01 -2.516079786E+00  1.159672480E+01  3.300000131E-01  0.00000E+00  9.000E+00
</event>
<event>
      5  10001  2.02673E+08  1.62022E+01 -1.00000E+00  1.74241E-01
      -3    -1     0     0     0   514  0.000000000E+00  0.000000000E+00  2.847386103E+00  2.847386103E+00  0.000000000E+00  0.00000E+00  9.000E+00
      21    -1     0     0   514   511  0.000000000E+00  0.000000000E+00 -4.914923521E+02  4.914923521E+02  0.000000000E+00  0.00000E+00  9.000E+00
      -3     1     1     2     0   512  1.121512189E+01  3.131746851E+00 -1.495082428E+01  1.895689700E+01  5.000000000E-01  0.00000E+00  9.000E+00
      21     1     1     2   515   511 -1.021021451E+01 -1.620819607E+01 -4.047086083E+02  4.051617106E+02  5.394796609E-06  0.00000E+00  9.000E+00
      21     1     1     2   512   515 -1.004907380E+00  1.307644922E+01 -6.898553342E+01  7.022113061E+01  1.348699152E-06  0.00000E+00  9.000E+00
</event>
<event>
      5  10001  2.02673E+08  2.37391E+01 -1.00000E+00  1.60414E-01
      -4    -1     0     0     0   511  0.000000000E+00  0.000000000E+00  1.216435108E+02  1.216435108E+02  0.000000000E+00  0.00000E+00  9.000E+00
      21    -1     0     0   514   513  0.000000000E+00  0.000000000E+00 -1.462606765E+02  1.462606765E+02  0.000000000E+00  0.00000E+00  9.000E+00
      21     1     1     2   515   511  3.555029954E+01  7.700800439E+00  9.694001760E+00  3.764438597E+01  7.251217997E-07  0.00000E+00  9.000E+00
      21     1     1     2   514   515 -2.483074512E+01  1.347920810E+01 -1.292935342E+02  1.323445237E+02  1.907348633E-06  0.00000E+00  9.000E+00
      -4     1     1     2     0   513 -1.071955442E+01 -2.118000854E+01  9.498236673E+01  9.791527765E+01  1.500000000E+00  0.00000E+00  9.000E+00
</event>
<event>
      5  10001  2.02673E+08  1.81753E+01 -1.00000E+00  1.69828E-01
       5    -1     0     0   514     0  0.000000000E+00  0.000000000E+00  1.128026358E+01  1.128026358E+01  0.000000000E+00  0.00000E+00  9.000E+00
      21    -1     0     0   512   511  0.000000000E+00  0.000000000E+00 -7.790443059E+02  7.790443059E+02  0.000000000E+00  0.00000E+00  9.000E+00
      21     1     1     2   514   513  2.805691848E+01 -3.658487955E+00 -2.538237698E+02  2.553959305E+02  2.697398305E-06  0.00000E+00  9.000E+00
       5     1     1     2   512     0 -1.166715576E+01  1.148457705E+01  3.294059278E+00  1.737552479E+01  4.800000191E+00  0.00000E+00  9.000E+00
      21     1     1     2   513   511 -1.638976273E+01 -7.826089091E+00 -5.172343318E+02  5.175531142E+02  0.000000000E+00  0.00000E+00  9.000E+00
</event>
<event>
      5  10001  2.02673E+08  1.33792E+01 -1.00000E+00  1.82143E-01
      21    -1     0     0   515   512  0.000000000E+00  0.000000000E+00  6.731462998E+01  6.731462998E+01  0.000000000E+00  0.00000E+00  9.000E+00
      21    -1     0     0   516   515  0.000000000E+00  0.000000000E+00 -3.291450359E+01  3.291450359E+01  0.000000000E+00  0.00000E+00  9.000E+00
      21     1     1     2   516   511 -1.991047604E+01 -2.414952385E+00 -2.394961676E+01  3.123848899E+01  0.000000000E+00  0.00000E+00  9.000E+00
      21     1     1     2   514   512  2.760899399E+01  1.602046291E+00  5.231509013E+01  5.917509406E+01  9.536743164E-07  0.00000E+00  9.000E+00
      21     1     1     2   511   514 -7.698517942E+00  8.129060939E-01  6.034653020E+00  9.815550514E+00  1.192092896E-07  0.00000E+00  9.000E+00
</event>
<event>
      5  10001  2.02673E+08  1.45353E+01 -1.00000E+00  1.78633E-01
      21    -1     0     0   515   512  0.000000000E+00  0.000000000E+00  1.577694871E+02  1.577694871E+02  0.000000000E+00  0.00000E+00  9.000E+00
      21    -1     0     0   517   513  0.000000000E+00  0.000000000E+00 -1.327568382E+01  1.327568382E+01  0.000000000E+00  0.00000E+00  9.000E+00
      21     1     1     2   514   512 -2.268291313E+01 -6.767551356E+00  9.821004607E+01  1.010224106E+02  1.348699152E-06  0.00000E+00  9.000E+00
      21     1     1     2   517   514  1.493960929E+01  1.906865259E+01  3.055264735E+00  2.441598001E+01  7.102713160E-07  0.00000E+00  9.000E+00
      21     1     1     2   515   513  7.743303842E+00 -1.230110124E+01  4.322849251E+01  4.560678032E+01  4.768371582E-07  0.00000E+00  9.000E+00
</event>
<event>
      5  10001  2.02673E+08  2.18190E+01 -1.00000E+00  1.63269E-01
      21    -1     0     0   511   513  0.000000000E+00  0.000000000E+00  4.674724577E+02  4.674724577E+02  0.000000000E+00  0.00000E+00  9.000E+00
      21    -1     0     0   512   514  0.000000000E+00  0.000000000E+00 -1.325129927E+01  1.325129927E+01  0.000000000E+00  0.00000E+00  9.000E+00
      21     1     1     2   511   516 -1.576587935E+01  2.288662349E+01  5.988407297E+01  6.601865405E+01  6.743495762E-07  0.00000E+00  9.000E+00
      21     1     1     2   512   513  2.405092824E+01 -2.701789286E+00  3.920166606E+02  3.927630443E+02  5.394796609E-06  0.00000E+00  9.000E+00
      21     1     1     2   516   514 -8.285048882E+00 -2.018483420E+01  2.320424949E+00  2.194205867E+01  3.793216366E-07  0.00000E+00  9.000E+00
</event>
<event>
      5  10001  2.02673E+08  1.27381E+01 -1.00000E+00  1.84291E-01
      21    -1     0     0   515   512  0.000000000E+00  0.000000000E+00  1.251522024E+02  1.251522024E+02  0.000000000E+00  0.00000E+00  9.000E+00
      21    -1     0     0   516   517  0.000000000E+00  0.000000000E+00 -1.057385543E+01  1.057385543E+01  0.000000000E+00  0.00000E+00  9.000E+00
      21     1     1     2   515   517  1.814159545E+01  7.394590295E+00  1.019885858E+02  1.038531130E+02  1.348699152E-06  0.00000E+00  9.000E+00
      21     1     1     2   511   512 -1.201324748E+01  6.471530882E-01 -3.799071882E+00  1.261625417E+01  2.308477966E-07  0.00000E+00  9.000E+00
      21     1     1     2   516   511 -6.128347967E+00 -8.041743383E+00  1.638883304E+01  1.925669062E+01  2.384185791E-07  0.00000E+00  9.000E+00
</event>
<event>
      5  10001  2.02673E+08  4.71452E+01 -1.00000E+00  1.40519E-01
      21    -1     0     0   513   511  0.000000000E+00  0.000000000E+00  2.386353081E+01  2.386353081E+01  0.000000000E+00  0.00000E+00  9.000E+00
      21    -1     0     0   514   513  0.000000000E+00  0.000000000E+00 -8.297817745E+01  8.297817745E+01  0.000000000E+00  0.00000E+00  9.000E+00
      21     1     1     2   514   516 -9.985161472E+00  1.516432079E+01 -3.445947331E+01  3.895016528E+01  0.000000000E+00  0.00000E+00  9.000E+00
      21     1     1     2   512   511  2.611338968E+00 -1.190647675E+01  1.950553309E+01  2.300106739E+01  2.384185791E-07  0.00000E+00  9.000E+00
      21     1     1     2   516   512  7.373822504E+00 -3.257844033E+00 -4.416070642E+01  4.489047558E+01  6.743495762E-07  0.00000E+00  9.000E+00
</event>
<event>
      5  10001  2.02673E+08  4.78547E+00 -1.00000E+00  2.46284E-01
      21    -1     0     0   515   512  0.000000000E+00  0.000000000E+00  7.721424843E+01  7.721424843E+01  0.000000000E+00  0.00000E+00  9.000E+00
      21    -1     0     0   514   517  0.000000000E+00  0.000000000E+00 -1.096341396E+01  1.096341396E+01  0.000000000E+00  0.00000E+00  9.000E+00
      21     1     1     2   515   517  2.045487725E+01 -1.583803163E+01  1.462866651E+01  2.971940667E+01  2.384185791E-07  0.00000E+00  9.000E+00
      21     1     1     2   511   512 -1.861632063E+01  1.260198029E+01  3.635657050E+01  4.274549706E+01  4.768371582E-07  0.00000E+00  9.000E+00
      21     1     1     2   514   511 -1.838556625E+00  3.236051337E+00  1.526559746E+01  1.571275866E+01  1.685873940E-07  0.00000E+00  9.000E+00
</event>
<event>
      5  10001  2.02673E+08  2.79503E+01 -1.00000E+00  1.55170E-01
      21    -1     0     0   513   511  0.000000000E+00  0.000000000E+00  9.431063633E+00  9.431063633E+00  0.000000000E+00  0.00000E+00  9.000E+00
      21    -1     0     0   514   513  0.000000000E+00  0.000000000E+00 -1.007251515E+02  1.007251515E+02  0.000000000E+00  0.00000E+00  9.000E+00
      21     1     1     2   514   516 -1.544153534E+01  9.676256097E+00 -6.723819077E+01  6.966380153E+01  9.536743164E-07  0.00000E+00  9.000E+00
      21     1     1     2   512   511  2.452763888E+00 -1.680749567E+01 -1.717341216E+01  2.415437945E+01  3.371747881E-07  0.00000E+00  9.000E+00
      21     1     1     2   516   512  1.298877145E+01  7.131239570E+00 -6.882484965E+00  1.633803418E+01  1.685873940E-07  0.00000E+00  9.000E+00
</event>
<event>
      5  10001  2.02673E+08  5.07782E+00 -1.00000E+00  2.37263E-01
      21    -1     0     0   515   511  0.000000000E+00  0.000000000E+00  1.216423892E+01  1.216423892E+01  0.000000000E+00  0.00000E+00  9.000E+00
      21    -1     0     0   517   515  0.000000000E+00  0.000000000E+00 -9.953166879E+01  9.953166879E+01  0.000000000E+00  0.00000E+00  9.000E+00
      21     1     1     2   512   511  6.225106826E+00  2.050342610E+01  1.371081484E-02  2.142761360E+01  6.505697541E-07  0.00000E+00  9.000E+00
      21     1     1     2   517   513 -4.307616021E+00 -1.129402319E+01 -6.271535589E+01  6.386960451E+01  0.000000000E+00  0.00000E+00  9.000E+00
      21     1     1     2   513   512 -1.917490805E+00 -9.209402904E+00 -2.466578480E+01  2.639868960E+01  3.371747881E-07  0.00000E+00  9.000E+00
</event>
</LesHouchesEvents>
 #Random number generator exit values:     54217137      24433883             0
